
     Program PWSCF v.5.3.0 (svn rev. 11974) starts on 12May2016 at  6:51:40 

     This program is part of the open-source Quantum ESPRESSO suite
     for quantum simulation of materials; please cite
         "P. Giannozzi et al., J. Phys.:Condens. Matter 21 395502 (2009);
          URL http://www.quantum-espresso.org", 
     in publications or presentations arising from this work. More details at
     http://www.quantum-espresso.org/quote

     Parallel version (MPI), running on    12 processors
     R & G space division:  proc/nbgrp/npool/nimage =      12
     Reading input from fe.relax2x2Htet.in
Warning: card &CELL ignored
Warning: card    CELL_DYNAMICS = 'BFGS', ignored
Warning: card    CELL_FACTOR=1.5 ignored
Warning: card     PRESS = 0.0 ignored
Warning: card  / ignored

     Current dimensions of program PWSCF are:
     Max number of different atomic species (ntypx) = 10
     Max number of k-points (npk) =  40000
     Max angular momentum in pseudopotentials (lmaxx) =  3
               file Fe.pbe-spn-kjpaw_psl.0.2.1.UPF: wavefunction(s)  3D renormalized
               file H.pbe-kjpaw_psl.0.1.UPF: wavefunction(s)  1S renormalized

     Subspace diagonalization in iterative solution of the eigenvalue problem:
     one sub-group per k-point group (pool) will be used
     scalapack distributed-memory algorithm (size of sub-group:  2*  2 procs)

 
     Parallelization info
     --------------------
     sticks:   dense  smooth     PW     G-vecs:    dense   smooth      PW
     Min         685     304     82                46693    13827    1964
     Max         686     305     83                46696    13857    1967
     Sum        8229    3657    989               560339   166101   23583
 
     Generating pointlists ...
     new r_m :   0.1153 (alat units)  1.2348 (a.u.) for type    1
     new r_m :   0.1153 (alat units)  1.2348 (a.u.) for type    2


     bravais-lattice index     =            0
     lattice parameter (alat)  =      10.7097  a.u.
     unit-cell volume          =    1228.3742 (a.u.)^3
     number of atoms/cell      =           17
     number of atomic types    =            2
     number of electrons       =       257.00
     number of Kohn-Sham states=          155
     kinetic-energy cutoff     =     100.0000  Ry
     charge density cutoff     =     900.0000  Ry
     convergence threshold     =      1.0E-07
     mixing beta               =       0.5000
     number of iterations used =            8  local-TF  mixing
     Exchange-correlation      =  SLA  PW   PBX  PBC ( 1  4  3  4 0 0)
     nstep                     =           50


     celldm(1)=  10.709690  celldm(2)=   0.000000  celldm(3)=   0.000000
     celldm(4)=   0.000000  celldm(5)=   0.000000  celldm(6)=   0.000000

     crystal axes: (cart. coord. in units of alat)
               a(1) = (   1.000000   0.000000   0.000000 )  
               a(2) = (   0.000000   1.000000   0.000000 )  
               a(3) = (   0.000000   0.000000   1.000000 )  

     reciprocal axes: (cart. coord. in units 2 pi/alat)
               b(1) = (  1.000000  0.000000  0.000000 )  
               b(2) = (  0.000000  1.000000  0.000000 )  
               b(3) = (  0.000000  0.000000  1.000000 )  


     PseudoPot. # 1 for Fe read from file:
     /home/staff/ifeanyijohn.onuorah/pseudo/Fe.pbe-spn-kjpaw_psl.0.2.1.UPF
     MD5 check sum: ad5d885054e60f2e780f97f310f6a303
     Pseudo is Projector augmented-wave + core cor, Zval = 16.0
     Generated using "atomic" code by A. Dal Corso  v.5.0.2 svn rev. 9415
     Shape of augmentation charge: PSQ
     Using radial grid of 1191 points,  6 beta functions with: 
                l(1) =   0
                l(2) =   0
                l(3) =   1
                l(4) =   1
                l(5) =   2
                l(6) =   2
     Q(r) pseudized with 0 coefficients 


     PseudoPot. # 2 for  H read from file:
     /home/staff/ifeanyijohn.onuorah/pseudo/H.pbe-kjpaw_psl.0.1.UPF
     MD5 check sum: c439e23f70ca22dfb59b46f37ccc36ba
     Pseudo is Projector augmented-wave, Zval =  1.0
     Generated using "atomic" code by A. Dal Corso  v.5.0.2 svn rev. 9415
     Shape of augmentation charge: PSQ
     Using radial grid of  929 points,  2 beta functions with: 
                l(1) =   0
                l(2) =   0
     Q(r) pseudized with 0 coefficients 


     atomic species   valence    mass     pseudopotential
        Fe            16.00    56.00000     Fe( 1.00)
        H              1.00     1.00000      H( 1.00)

     Starting magnetic structure 
     atomic species   magnetization
        Fe           0.500
        H            0.000

      4 Sym. Ops. (no inversion) found ( 2 have fractional translation)


                                    s                        frac. trans.

      isym =  1     identity                                     

 cryst.   s( 1) = (     1          0          0      )
                  (     0          1          0      )
                  (     0          0          1      )

 cart.    s( 1) = (  1.0000000  0.0000000  0.0000000 )
                  (  0.0000000  1.0000000  0.0000000 )
                  (  0.0000000  0.0000000  1.0000000 )


      isym =  2     180 deg rotation - cart. axis [0,1,0]        

 cryst.   s( 2) = (    -1          0          0      )    f =(  0.5000000 )
                  (     0          1          0      )       (  0.0000000 )
                  (     0          0         -1      )       (  0.0000000 )

 cart.    s( 2) = ( -1.0000000  0.0000000  0.0000000 )    f =(  0.5000000 )
                  (  0.0000000  1.0000000  0.0000000 )       (  0.0000000 )
                  (  0.0000000  0.0000000 -1.0000000 )       (  0.0000000 )


      isym =  3     inv. 180 deg rotation - cart. axis [0,0,1]   

 cryst.   s( 3) = (     1          0          0      )
                  (     0          1          0      )
                  (     0          0         -1      )

 cart.    s( 3) = (  1.0000000  0.0000000  0.0000000 )
                  (  0.0000000  1.0000000  0.0000000 )
                  (  0.0000000  0.0000000 -1.0000000 )


      isym =  4     inv. 180 deg rotation - cart. axis [1,0,0]   

 cryst.   s( 4) = (    -1          0          0      )    f =(  0.5000000 )
                  (     0          1          0      )       (  0.0000000 )
                  (     0          0          1      )       (  0.0000000 )

 cart.    s( 4) = ( -1.0000000  0.0000000  0.0000000 )    f =(  0.5000000 )
                  (  0.0000000  1.0000000  0.0000000 )       (  0.0000000 )
                  (  0.0000000  0.0000000  1.0000000 )       (  0.0000000 )


   Cartesian axes

     site n.     atom                  positions (alat units)
         1           Fe  tau(   1) = (   0.0000000   0.0000000   0.0000000  )
         2           Fe  tau(   2) = (   0.2499986   0.2499986   0.2499986  )
         3           Fe  tau(   3) = (   0.0000000   0.0000000   0.5000000  )
         4           Fe  tau(   4) = (   0.2499986   0.2499986   0.7500014  )
         5           Fe  tau(   5) = (   0.0000000   0.5000000   0.0000000  )
         6           Fe  tau(   6) = (   0.2499986   0.7500014   0.2499986  )
         7           Fe  tau(   7) = (   0.0000000   0.5000000   0.5000000  )
         8           Fe  tau(   8) = (   0.2499986   0.7500014   0.7500014  )
         9           Fe  tau(   9) = (   0.5000000   0.0000000   0.0000000  )
        10           Fe  tau(  10) = (   0.7500014   0.2499986   0.2499986  )
        11           Fe  tau(  11) = (   0.5000000   0.0000000   0.5000000  )
        12           Fe  tau(  12) = (   0.7500014   0.2499986   0.7500014  )
        13           Fe  tau(  13) = (   0.5000000   0.5000000   0.0000000  )
        14           Fe  tau(  14) = (   0.7500014   0.7500014   0.2499986  )
        15           Fe  tau(  15) = (   0.5000000   0.5000000   0.5000000  )
        16           Fe  tau(  16) = (   0.7500014   0.7500014   0.7500014  )
        17           H   tau(  17) = (   0.2499986   0.1249993   0.5000000  )

   Crystallographic axes

     site n.     atom                  positions (cryst. coord.)
         1           Fe  tau(   1) = (  0.0000000  0.0000000  0.0000000  )
         2           Fe  tau(   2) = (  0.2499986  0.2499986  0.2499986  )
         3           Fe  tau(   3) = (  0.0000000  0.0000000  0.5000000  )
         4           Fe  tau(   4) = (  0.2499986  0.2499986  0.7500014  )
         5           Fe  tau(   5) = (  0.0000000  0.5000000  0.0000000  )
         6           Fe  tau(   6) = (  0.2499986  0.7500014  0.2499986  )
         7           Fe  tau(   7) = (  0.0000000  0.5000000  0.5000000  )
         8           Fe  tau(   8) = (  0.2499986  0.7500014  0.7500014  )
         9           Fe  tau(   9) = (  0.5000000  0.0000000  0.0000000  )
        10           Fe  tau(  10) = (  0.7500014  0.2499986  0.2499986  )
        11           Fe  tau(  11) = (  0.5000000  0.0000000  0.5000000  )
        12           Fe  tau(  12) = (  0.7500014  0.2499986  0.7500014  )
        13           Fe  tau(  13) = (  0.5000000  0.5000000  0.0000000  )
        14           Fe  tau(  14) = (  0.7500014  0.7500014  0.2499986  )
        15           Fe  tau(  15) = (  0.5000000  0.5000000  0.5000000  )
        16           Fe  tau(  16) = (  0.7500014  0.7500014  0.7500014  )
        17           H   tau(  17) = (  0.2499986  0.1249993  0.5000000  )

     number of k points=    64  Marzari-Vanderbilt smearing, width (Ry)=  0.0050
                       cart. coord. in units 2pi/alat
        k(    1) = (   0.0000000   0.0000000   0.0000000), wk =   0.0029155
        k(    2) = (   0.0000000   0.0000000   0.1428571), wk =   0.0058309
        k(    3) = (   0.0000000   0.0000000   0.2857143), wk =   0.0058309
        k(    4) = (   0.0000000   0.0000000   0.4285714), wk =   0.0058309
        k(    5) = (   0.0000000   0.1428571   0.1428571), wk =   0.0116618
        k(    6) = (   0.0000000   0.1428571   0.2857143), wk =   0.0116618
        k(    7) = (   0.0000000   0.1428571   0.4285714), wk =   0.0116618
        k(    8) = (   0.0000000   0.2857143   0.2857143), wk =   0.0116618
        k(    9) = (   0.0000000   0.2857143   0.4285714), wk =   0.0116618
        k(   10) = (   0.0000000   0.4285714   0.4285714), wk =   0.0116618
        k(   11) = (   0.1428571   0.1428571   0.1428571), wk =   0.0233236
        k(   12) = (   0.1428571   0.1428571   0.2857143), wk =   0.0233236
        k(   13) = (   0.1428571   0.1428571   0.4285714), wk =   0.0233236
        k(   14) = (   0.1428571   0.2857143   0.2857143), wk =   0.0233236
        k(   15) = (   0.1428571   0.2857143   0.4285714), wk =   0.0233236
        k(   16) = (   0.1428571   0.4285714   0.4285714), wk =   0.0233236
        k(   17) = (   0.2857143   0.2857143   0.2857143), wk =   0.0233236
        k(   18) = (   0.2857143   0.2857143   0.4285714), wk =   0.0233236
        k(   19) = (   0.2857143   0.4285714   0.4285714), wk =   0.0233236
        k(   20) = (   0.4285714   0.4285714   0.4285714), wk =   0.0233236
        k(   21) = (   0.1428571   0.0000000   0.0000000), wk =   0.0058309
        k(   22) = (   0.0000000   0.1428571   0.0000000), wk =   0.0058309
        k(   23) = (   0.2857143   0.0000000   0.0000000), wk =   0.0058309
        k(   24) = (   0.0000000   0.2857143   0.0000000), wk =   0.0058309
        k(   25) = (   0.4285714   0.0000000   0.0000000), wk =   0.0058309
        k(   26) = (   0.0000000   0.4285714   0.0000000), wk =   0.0058309
        k(   27) = (   0.1428571   0.0000000  -0.1428571), wk =   0.0116618
        k(   28) = (   0.1428571  -0.1428571   0.0000000), wk =   0.0116618
        k(   29) = (   0.1428571   0.0000000  -0.2857143), wk =   0.0116618
        k(   30) = (   0.2857143  -0.1428571   0.0000000), wk =   0.0116618
        k(   31) = (   0.0000000   0.2857143   0.1428571), wk =   0.0116618
        k(   32) = (   0.1428571   0.2857143   0.0000000), wk =   0.0116618
        k(   33) = (   0.2857143   0.0000000   0.1428571), wk =   0.0116618
        k(   34) = (   0.1428571   0.0000000  -0.4285714), wk =   0.0116618
        k(   35) = (   0.4285714  -0.1428571   0.0000000), wk =   0.0116618
        k(   36) = (   0.0000000   0.4285714   0.1428571), wk =   0.0116618
        k(   37) = (   0.1428571   0.4285714   0.0000000), wk =   0.0116618
        k(   38) = (   0.4285714   0.0000000   0.1428571), wk =   0.0116618
        k(   39) = (   0.2857143   0.0000000  -0.2857143), wk =   0.0116618
        k(   40) = (   0.2857143  -0.2857143   0.0000000), wk =   0.0116618
        k(   41) = (   0.2857143   0.0000000  -0.4285714), wk =   0.0116618
        k(   42) = (   0.4285714  -0.2857143   0.0000000), wk =   0.0116618
        k(   43) = (   0.0000000   0.4285714   0.2857143), wk =   0.0116618
        k(   44) = (   0.2857143   0.4285714   0.0000000), wk =   0.0116618
        k(   45) = (   0.4285714   0.0000000   0.2857143), wk =   0.0116618
        k(   46) = (   0.4285714   0.0000000  -0.4285714), wk =   0.0116618
        k(   47) = (   0.4285714  -0.4285714   0.0000000), wk =   0.0116618
        k(   48) = (   0.2857143  -0.1428571   0.1428571), wk =   0.0233236
        k(   49) = (  -0.1428571   0.2857143   0.1428571), wk =   0.0233236
        k(   50) = (   0.4285714  -0.1428571   0.1428571), wk =   0.0233236
        k(   51) = (  -0.1428571   0.4285714   0.1428571), wk =   0.0233236
        k(   52) = (   0.2857143   0.1428571  -0.2857143), wk =   0.0233236
        k(   53) = (   0.2857143  -0.2857143   0.1428571), wk =   0.0233236
        k(   54) = (   0.2857143   0.1428571  -0.4285714), wk =   0.0233236
        k(   55) = (   0.4285714  -0.2857143   0.1428571), wk =   0.0233236
        k(   56) = (  -0.1428571   0.4285714   0.2857143), wk =   0.0233236
        k(   57) = (   0.2857143   0.4285714   0.1428571), wk =   0.0233236
        k(   58) = (   0.4285714   0.1428571   0.2857143), wk =   0.0233236
        k(   59) = (   0.4285714   0.1428571  -0.4285714), wk =   0.0233236
        k(   60) = (   0.4285714  -0.4285714   0.1428571), wk =   0.0233236
        k(   61) = (   0.4285714  -0.2857143   0.2857143), wk =   0.0233236
        k(   62) = (  -0.2857143   0.4285714   0.2857143), wk =   0.0233236
        k(   63) = (   0.4285714   0.2857143  -0.4285714), wk =   0.0233236
        k(   64) = (   0.4285714  -0.4285714   0.2857143), wk =   0.0233236

                       cryst. coord.
        k(    1) = (   0.0000000   0.0000000   0.0000000), wk =   0.0029155
        k(    2) = (   0.0000000   0.0000000   0.1428571), wk =   0.0058309
        k(    3) = (   0.0000000   0.0000000   0.2857143), wk =   0.0058309
        k(    4) = (   0.0000000   0.0000000   0.4285714), wk =   0.0058309
        k(    5) = (   0.0000000   0.1428571   0.1428571), wk =   0.0116618
        k(    6) = (   0.0000000   0.1428571   0.2857143), wk =   0.0116618
        k(    7) = (   0.0000000   0.1428571   0.4285714), wk =   0.0116618
        k(    8) = (   0.0000000   0.2857143   0.2857143), wk =   0.0116618
        k(    9) = (   0.0000000   0.2857143   0.4285714), wk =   0.0116618
        k(   10) = (   0.0000000   0.4285714   0.4285714), wk =   0.0116618
        k(   11) = (   0.1428571   0.1428571   0.1428571), wk =   0.0233236
        k(   12) = (   0.1428571   0.1428571   0.2857143), wk =   0.0233236
        k(   13) = (   0.1428571   0.1428571   0.4285714), wk =   0.0233236
        k(   14) = (   0.1428571   0.2857143   0.2857143), wk =   0.0233236
        k(   15) = (   0.1428571   0.2857143   0.4285714), wk =   0.0233236
        k(   16) = (   0.1428571   0.4285714   0.4285714), wk =   0.0233236
        k(   17) = (   0.2857143   0.2857143   0.2857143), wk =   0.0233236
        k(   18) = (   0.2857143   0.2857143   0.4285714), wk =   0.0233236
        k(   19) = (   0.2857143   0.4285714   0.4285714), wk =   0.0233236
        k(   20) = (   0.4285714   0.4285714   0.4285714), wk =   0.0233236
        k(   21) = (   0.1428571   0.0000000   0.0000000), wk =   0.0058309
        k(   22) = (   0.0000000   0.1428571   0.0000000), wk =   0.0058309
        k(   23) = (   0.2857143   0.0000000   0.0000000), wk =   0.0058309
        k(   24) = (   0.0000000   0.2857143   0.0000000), wk =   0.0058309
        k(   25) = (   0.4285714   0.0000000   0.0000000), wk =   0.0058309
        k(   26) = (   0.0000000   0.4285714   0.0000000), wk =   0.0058309
        k(   27) = (   0.1428571   0.0000000  -0.1428571), wk =   0.0116618
        k(   28) = (   0.1428571  -0.1428571   0.0000000), wk =   0.0116618
        k(   29) = (   0.1428571   0.0000000  -0.2857143), wk =   0.0116618
        k(   30) = (   0.2857143  -0.1428571   0.0000000), wk =   0.0116618
        k(   31) = (   0.0000000   0.2857143   0.1428571), wk =   0.0116618
        k(   32) = (   0.1428571   0.2857143   0.0000000), wk =   0.0116618
        k(   33) = (   0.2857143   0.0000000   0.1428571), wk =   0.0116618
        k(   34) = (   0.1428571   0.0000000  -0.4285714), wk =   0.0116618
        k(   35) = (   0.4285714  -0.1428571   0.0000000), wk =   0.0116618
        k(   36) = (   0.0000000   0.4285714   0.1428571), wk =   0.0116618
        k(   37) = (   0.1428571   0.4285714   0.0000000), wk =   0.0116618
        k(   38) = (   0.4285714   0.0000000   0.1428571), wk =   0.0116618
        k(   39) = (   0.2857143   0.0000000  -0.2857143), wk =   0.0116618
        k(   40) = (   0.2857143  -0.2857143   0.0000000), wk =   0.0116618
        k(   41) = (   0.2857143   0.0000000  -0.4285714), wk =   0.0116618
        k(   42) = (   0.4285714  -0.2857143   0.0000000), wk =   0.0116618
        k(   43) = (   0.0000000   0.4285714   0.2857143), wk =   0.0116618
        k(   44) = (   0.2857143   0.4285714   0.0000000), wk =   0.0116618
        k(   45) = (   0.4285714   0.0000000   0.2857143), wk =   0.0116618
        k(   46) = (   0.4285714   0.0000000  -0.4285714), wk =   0.0116618
        k(   47) = (   0.4285714  -0.4285714   0.0000000), wk =   0.0116618
        k(   48) = (   0.2857143  -0.1428571   0.1428571), wk =   0.0233236
        k(   49) = (  -0.1428571   0.2857143   0.1428571), wk =   0.0233236
        k(   50) = (   0.4285714  -0.1428571   0.1428571), wk =   0.0233236
        k(   51) = (  -0.1428571   0.4285714   0.1428571), wk =   0.0233236
        k(   52) = (   0.2857143   0.1428571  -0.2857143), wk =   0.0233236
        k(   53) = (   0.2857143  -0.2857143   0.1428571), wk =   0.0233236
        k(   54) = (   0.2857143   0.1428571  -0.4285714), wk =   0.0233236
        k(   55) = (   0.4285714  -0.2857143   0.1428571), wk =   0.0233236
        k(   56) = (  -0.1428571   0.4285714   0.2857143), wk =   0.0233236
        k(   57) = (   0.2857143   0.4285714   0.1428571), wk =   0.0233236
        k(   58) = (   0.4285714   0.1428571   0.2857143), wk =   0.0233236
        k(   59) = (   0.4285714   0.1428571  -0.4285714), wk =   0.0233236
        k(   60) = (   0.4285714  -0.4285714   0.1428571), wk =   0.0233236
        k(   61) = (   0.4285714  -0.2857143   0.2857143), wk =   0.0233236
        k(   62) = (  -0.2857143   0.4285714   0.2857143), wk =   0.0233236
        k(   63) = (   0.4285714   0.2857143  -0.4285714), wk =   0.0233236
        k(   64) = (   0.4285714  -0.4285714   0.2857143), wk =   0.0233236

     Dense  grid:   560339 G-vectors     FFT dimensions: ( 108, 108, 108)

     Smooth grid:   166101 G-vectors     FFT dimensions: (  72,  72,  72)

     Largest allocated arrays     est. size (Mb)     dimensions
        Kohn-Sham Wavefunctions         4.11 Mb     (    1738,  155)
        NL pseudopotentials             7.69 Mb     (    1738,  290)
        Each V/rho on FFT grid          3.20 Mb     (  104976,   2)
        Each G-vector array             0.36 Mb     (   46696)
        G-vector shells                 0.02 Mb     (    2148)
     Largest temporary arrays     est. size (Mb)     dimensions
        Auxiliary wavefunctions        16.44 Mb     (    1738,  620)
        Each subspace H/S matrix        1.47 Mb     (     310,  310)
        Each <psi_i|beta_j> matrix      0.69 Mb     (     290,  155)
        Arrays for rho mixing          12.81 Mb     (  104976,    8)

     Check: negative/imaginary core charge=   -0.000005    0.000000

     Initial potential from superposition of free atoms

     starting charge  256.99298, renormalised to  257.00000
     Starting wfc are  209 randomized atomic wfcs
     Checking if some PAW data can be deallocated... 
       node    0, deallocated PAW data for type:  2
       node    1, deallocated PAW data for type:  2
       node    2, deallocated PAW data for type:  2
       node    3, deallocated PAW data for type:  2
       node    4, deallocated PAW data for type:  2
       node    5, deallocated PAW data for type:  2
       node    6, deallocated PAW data for type:  2
       node    7, deallocated PAW data for type:  2
       node    8, deallocated PAW data for type:  2
       node    9, deallocated PAW data for type:  2
       node   10, deallocated PAW data for type:  2
       node   11, deallocated PAW data for type:  1

     total cpu time spent up to now is      150.7 secs

     Self-consistent Calculation

     iteration #  1     ecut=   100.00 Ry     beta=0.50
     Davidson diagonalization with overlap
     ethr =  1.00E-02,  avg # of iterations =  3.0

     negative rho (up, down):  0.000E+00 3.581E-04

     total cpu time spent up to now is      538.6 secs

     total energy              =   -5266.79502038 Ry
     Harris-Foulkes estimate   =   -5262.02720008 Ry
     estimated scf accuracy    <       9.54166001 Ry

     total magnetization       =    52.29 Bohr mag/cell
     absolute magnetization    =    53.61 Bohr mag/cell

     iteration #  2     ecut=   100.00 Ry     beta=0.50
     Davidson diagonalization with overlap
     ethr =  3.71E-03,  avg # of iterations =  1.1

     negative rho (up, down):  0.000E+00 1.197E-03

     total cpu time spent up to now is      841.7 secs

     total energy              =   -5268.90943680 Ry
     Harris-Foulkes estimate   =   -5267.05858846 Ry
     estimated scf accuracy    <       2.92914872 Ry

     total magnetization       =    47.96 Bohr mag/cell
     absolute magnetization    =    50.23 Bohr mag/cell

     iteration #  3     ecut=   100.00 Ry     beta=0.50
     Davidson diagonalization with overlap
     ethr =  1.14E-03,  avg # of iterations =  2.0

     negative rho (up, down):  0.000E+00 1.153E-03

     total cpu time spent up to now is     1170.9 secs

     total energy              =   -5269.36456752 Ry
     Harris-Foulkes estimate   =   -5269.34650297 Ry
     estimated scf accuracy    <       0.24291251 Ry

     total magnetization       =    39.80 Bohr mag/cell
     absolute magnetization    =    42.81 Bohr mag/cell

     iteration #  4     ecut=   100.00 Ry     beta=0.50
     Davidson diagonalization with overlap
     ethr =  9.45E-05,  avg # of iterations =  3.5

     negative rho (up, down):  0.000E+00 9.645E-04

     total cpu time spent up to now is     1592.9 secs

     total energy              =   -5269.44099967 Ry
     Harris-Foulkes estimate   =   -5269.42441978 Ry
     estimated scf accuracy    <       0.06057324 Ry

     total magnetization       =    37.92 Bohr mag/cell
     absolute magnetization    =    40.67 Bohr mag/cell

     iteration #  5     ecut=   100.00 Ry     beta=0.50
     Davidson diagonalization with overlap
     ethr =  2.36E-05,  avg # of iterations =  3.2

     negative rho (up, down):  0.000E+00 8.221E-04

     total cpu time spent up to now is     1983.5 secs

     total energy              =   -5269.46411448 Ry
     Harris-Foulkes estimate   =   -5269.46318870 Ry
     estimated scf accuracy    <       0.01357302 Ry

     total magnetization       =    36.00 Bohr mag/cell
     absolute magnetization    =    38.49 Bohr mag/cell

     iteration #  6     ecut=   100.00 Ry     beta=0.50
     Davidson diagonalization with overlap
     ethr =  5.28E-06,  avg # of iterations =  3.6

     negative rho (up, down):  0.000E+00 6.623E-04

     total cpu time spent up to now is     2442.1 secs

     total energy              =   -5269.46781593 Ry
     Harris-Foulkes estimate   =   -5269.47152212 Ry
     estimated scf accuracy    <       0.04712043 Ry

     total magnetization       =    36.65 Bohr mag/cell
     absolute magnetization    =    38.87 Bohr mag/cell

     iteration #  7     ecut=   100.00 Ry     beta=0.50
     Davidson diagonalization with overlap
     ethr =  5.28E-06,  avg # of iterations =  3.2

     negative rho (up, down):  0.000E+00 6.507E-04

     total cpu time spent up to now is     2854.7 secs

     total energy              =   -5269.47756483 Ry
     Harris-Foulkes estimate   =   -5269.47754531 Ry
     estimated scf accuracy    <       0.00089711 Ry

     total magnetization       =    35.33 Bohr mag/cell
     absolute magnetization    =    37.32 Bohr mag/cell

     iteration #  8     ecut=   100.00 Ry     beta=0.50
     Davidson diagonalization with overlap
     ethr =  3.49E-07,  avg # of iterations =  3.5

     negative rho (up, down):  0.000E+00 6.598E-04

     total cpu time spent up to now is     3309.6 secs

     total energy              =   -5269.47790428 Ry
     Harris-Foulkes estimate   =   -5269.47786153 Ry
     estimated scf accuracy    <       0.00049796 Ry

     total magnetization       =    35.18 Bohr mag/cell
     absolute magnetization    =    37.13 Bohr mag/cell

     iteration #  9     ecut=   100.00 Ry     beta=0.50
     Davidson diagonalization with overlap
     ethr =  1.94E-07,  avg # of iterations =  1.7

     negative rho (up, down):  0.000E+00 6.613E-04

     total cpu time spent up to now is     3635.8 secs

     total energy              =   -5269.47797106 Ry
     Harris-Foulkes estimate   =   -5269.47796577 Ry
     estimated scf accuracy    <       0.00006517 Ry

     total magnetization       =    35.19 Bohr mag/cell
     absolute magnetization    =    37.11 Bohr mag/cell

     iteration # 10     ecut=   100.00 Ry     beta=0.50
     Davidson diagonalization with overlap
     ethr =  2.54E-08,  avg # of iterations =  3.1

     negative rho (up, down):  0.000E+00 6.623E-04

     total cpu time spent up to now is     3998.3 secs

     total energy              =   -5269.47798285 Ry
     Harris-Foulkes estimate   =   -5269.47798254 Ry
     estimated scf accuracy    <       0.00002277 Ry

     total magnetization       =    35.16 Bohr mag/cell
     absolute magnetization    =    37.07 Bohr mag/cell

     iteration # 11     ecut=   100.00 Ry     beta=0.50
     Davidson diagonalization with overlap
     ethr =  8.86E-09,  avg # of iterations =  2.5

     negative rho (up, down):  0.000E+00 6.613E-04

     total cpu time spent up to now is     4340.4 secs

     total energy              =   -5269.47798628 Ry
     Harris-Foulkes estimate   =   -5269.47798590 Ry
     estimated scf accuracy    <       0.00000186 Ry

     total magnetization       =    35.15 Bohr mag/cell
     absolute magnetization    =    37.06 Bohr mag/cell

     iteration # 12     ecut=   100.00 Ry     beta=0.50
     Davidson diagonalization with overlap
     ethr =  7.23E-10,  avg # of iterations =  3.6

     negative rho (up, down):  0.000E+00 6.609E-04

     total cpu time spent up to now is     4910.7 secs

     total energy              =   -5269.47798761 Ry
     Harris-Foulkes estimate   =   -5269.47798748 Ry
     estimated scf accuracy    <       0.00000046 Ry

     total magnetization       =    35.14 Bohr mag/cell
     absolute magnetization    =    37.04 Bohr mag/cell

     iteration # 13     ecut=   100.00 Ry     beta=0.50
     Davidson diagonalization with overlap
     ethr =  1.78E-10,  avg # of iterations =  1.8

     negative rho (up, down):  0.000E+00 6.603E-04

     total cpu time spent up to now is     5239.1 secs

     total energy              =   -5269.47798769 Ry
     Harris-Foulkes estimate   =   -5269.47798770 Ry
     estimated scf accuracy    <       0.00000019 Ry

     total magnetization       =    35.14 Bohr mag/cell
     absolute magnetization    =    37.04 Bohr mag/cell

     iteration # 14     ecut=   100.00 Ry     beta=0.50
     Davidson diagonalization with overlap
     ethr =  7.50E-11,  avg # of iterations =  3.0

     negative rho (up, down):  0.000E+00 6.602E-04
 
     Magnetic moment per site:
     atom:    1    charge:   11.8059    magn:    1.8976    constr:    0.0000
     atom:    2    charge:   11.8182    magn:    1.7937    constr:    0.0000
     atom:    3    charge:   11.8182    magn:    1.7937    constr:    0.0000
     atom:    4    charge:   11.8182    magn:    1.7937    constr:    0.0000
     atom:    5    charge:   11.8053    magn:    1.9145    constr:    0.0000
     atom:    6    charge:   11.8078    magn:    1.9046    constr:    0.0000
     atom:    7    charge:   11.8078    magn:    1.9047    constr:    0.0000
     atom:    8    charge:   11.8078    magn:    1.9046    constr:    0.0000
     atom:    9    charge:   11.8059    magn:    1.8976    constr:    0.0000
     atom:   10    charge:   11.8059    magn:    1.8976    constr:    0.0000
     atom:   11    charge:   11.8182    magn:    1.7937    constr:    0.0000
     atom:   12    charge:   11.8059    magn:    1.8976    constr:    0.0000
     atom:   13    charge:   11.8053    magn:    1.9145    constr:    0.0000
     atom:   14    charge:   11.8053    magn:    1.9145    constr:    0.0000
     atom:   15    charge:   11.8078    magn:    1.9047    constr:    0.0000
     atom:   16    charge:   11.8053    magn:    1.9145    constr:    0.0000
     atom:   17    charge:    1.0875    magn:   -0.0042    constr:    0.0000

     total cpu time spent up to now is     5627.7 secs

     End of self-consistent calculation

 ------ SPIN UP ------------


          k = 0.0000 0.0000 0.0000 ( 20719 PWs)   bands (ev):

   -69.7629 -69.6931 -69.6917 -69.6908 -69.6907 -69.6890 -69.6889 -69.6868
   -69.6866 -69.6834 -69.6833 -69.6805 -69.6801 -69.6732 -69.6731 -69.6251
   -36.0478 -35.9732 -35.9673 -35.9673 -35.9586 -35.9548 -35.8696 -35.8696
   -35.8586 -35.8271 -35.8188 -35.7811 -35.7811 -35.7696 -35.7663 -35.7600
   -35.7600 -35.7540 -35.7540 -35.7537 -35.7533 -35.7497 -35.7494 -35.7057
   -35.7057 -35.6988 -35.6988 -35.6981 -35.6974 -35.6973 -35.6962 -35.6899
   -35.6898 -35.6865 -35.6864 -35.6813 -35.6813 -35.6763 -35.6758 -35.6035
   -35.5576 -35.5576 -35.5565 -35.5540 -35.5483 -35.5483 -35.5444 -35.5422
     8.6084  10.8088  13.2518  13.3172  13.3172  13.3865  13.3865  13.4314
    13.4395  13.4930  13.5891  13.6099  13.6099  13.6309  13.6332  14.6583
    14.8729  14.8729  14.9144  14.9496  14.9551  14.9809  15.0434  15.0639
    15.0640  15.0882  15.0980  15.2302  15.2328  15.3236  15.3236  15.3292
    15.3347  16.0077  16.0077  16.0215  16.3242  16.3977  16.3977  16.4594
    16.4670  16.4686  16.4687  16.4793  16.4857  16.4857  16.5005  16.5005
    17.1705  17.1705  17.1940  17.2013  17.2171  17.2190  17.2478  17.2486
    17.2769  17.2769  17.3016  17.3048  17.3298  17.3298  17.3762  17.3763
    17.4301  17.4391  17.4443  17.4443  17.4671  17.4671  17.4784  17.4784
    17.6640  18.4484  18.4484  18.4695  18.4865  18.4865  18.5198  18.5352
    18.5382  18.5764  18.6909  18.7281  18.7369  18.7369  18.7441  18.7441
    18.7459  18.7579  18.7607

     occupation numbers 
     1.0000   1.0000   1.0000   1.0000   1.0000   1.0000   1.0000   1.0000
     1.0000   1.0000   1.0000   1.0000   1.0000   1.0000   1.0000   1.0000
     1.0000   1.0000   1.0000   1.0000   1.0000   1.0000   1.0000   1.0000
     1.0000   1.0000   1.0000   1.0000   1.0000   1.0000   1.0000   1.0000
     1.0000   1.0000   1.0000   1.0000   1.0000   1.0000   1.0000   1.0000
     1.0000   1.0000   1.0000   1.0000   1.0000   1.0000   1.0000   1.0000
     1.0000   1.0000   1.0000   1.0000   1.0000   1.0000   1.0000   1.0000
     1.0000   1.0000   1.0000   1.0000   1.0000   1.0000   1.0000   1.0000
     1.0000   1.0000   1.0000   1.0000   1.0000   1.0000   1.0000   1.0000
     1.0000   1.0000   1.0000   1.0000   1.0000   1.0000   1.0000   1.0000
     1.0000   1.0000   1.0000   1.0000   1.0000   1.0000   1.0000   1.0000
     1.0000   1.0000   1.0000   1.0000   1.0000   1.0000   1.0000   1.0000
     1.0000   1.0000   1.0000   1.0000   1.0000   1.0000   1.0000   1.0000
     1.0000   1.0000   1.0000   1.0000   1.0000   1.0000   1.0000   1.0000
     1.0000   1.0000   1.0000   1.0000   1.0000   1.0000   1.0000   1.0000
     1.0000   1.0000   1.0000   1.0000   1.0000   1.0000   1.0000   1.0000
     1.0000   1.0000   1.0000   1.0000   1.0000   1.0000   1.0000   1.0000
     1.0000   0.0579   0.0579   0.0198   0.0074   0.0073   0.0007   0.0002
     0.0002   0.0000   0.0000   0.0000   0.0000   0.0000   0.0000   0.0000
     0.0000   0.0000   0.0000

          k = 0.0000 0.0000 0.1429 ( 20698 PWs)   bands (ev):

   -69.7609 -69.7054 -69.6922 -69.6905 -69.6900 -69.6887 -69.6870 -69.6867
   -69.6841 -69.6835 -69.6830 -69.6801 -69.6770 -69.6732 -69.6703 -69.6265
   -36.0421 -35.9674 -35.9621 -35.9613 -35.9522 -35.9485 -35.8748 -35.8668
   -35.8556 -35.8439 -35.8281 -35.8037 -35.8014 -35.7869 -35.7841 -35.7826
   -35.7716 -35.7711 -35.7584 -35.7461 -35.7425 -35.7295 -35.7282 -35.7159
   -35.7074 -35.7027 -35.6968 -35.6921 -35.6920 -35.6890 -35.6888 -35.6840
   -35.6818 -35.6799 -35.6725 -35.6712 -35.6654 -35.6628 -35.6617 -35.6071
   -35.5639 -35.5611 -35.5607 -35.5574 -35.5530 -35.5525 -35.5481 -35.5463
     8.6622  10.8428  13.0274  13.3007  13.3508  13.3597  13.4177  13.4571
    13.4787  13.4952  13.5561  13.6258  13.6426  13.6661  13.9549  14.6334
    14.8409  14.8834  14.8951  14.9164  14.9377  14.9658  14.9746  14.9785
    14.9958  15.0027  15.1629  15.2345  15.2803  15.2937  15.3023  15.3107
    15.7234  16.0049  16.0200  16.0341  16.1824  16.2320  16.2733  16.2751
    16.3010  16.3082  16.4939  16.5489  16.5547  16.5781  16.6916  16.7205
    16.9286  16.9394  17.1366  17.1435  17.1537  17.1814  17.2235  17.2498
    17.2795  17.2946  17.3140  17.3154  17.3302  17.3729  17.3964  17.3994
    17.4073  17.4313  17.4397  17.4456  17.4605  17.4705  17.4782  17.5047
    17.6892  17.9167  17.9785  18.2052  18.3784  18.3787  18.4307  18.5075
    18.5521  18.5654  18.6272  18.6816  18.6923  18.7062  18.7157  18.8158
    18.8316  18.8439  19.3658

     occupation numbers 
     1.0000   1.0000   1.0000   1.0000   1.0000   1.0000   1.0000   1.0000
     1.0000   1.0000   1.0000   1.0000   1.0000   1.0000   1.0000   1.0000
     1.0000   1.0000   1.0000   1.0000   1.0000   1.0000   1.0000   1.0000
     1.0000   1.0000   1.0000   1.0000   1.0000   1.0000   1.0000   1.0000
     1.0000   1.0000   1.0000   1.0000   1.0000   1.0000   1.0000   1.0000
     1.0000   1.0000   1.0000   1.0000   1.0000   1.0000   1.0000   1.0000
     1.0000   1.0000   1.0000   1.0000   1.0000   1.0000   1.0000   1.0000
     1.0000   1.0000   1.0000   1.0000   1.0000   1.0000   1.0000   1.0000
     1.0000   1.0000   1.0000   1.0000   1.0000   1.0000   1.0000   1.0000
     1.0000   1.0000   1.0000   1.0000   1.0000   1.0000   1.0000   1.0000
     1.0000   1.0000   1.0000   1.0000   1.0000   1.0000   1.0000   1.0000
     1.0000   1.0000   1.0000   1.0000   1.0000   1.0000   1.0000   1.0000
     1.0000   1.0000   1.0000   1.0000   1.0000   1.0000   1.0000   1.0000
     1.0000   1.0000   1.0000   1.0000   1.0000   1.0000   1.0000   1.0000
     1.0000   1.0000   1.0000   1.0000   1.0000   1.0000   1.0000   1.0000
     1.0000   1.0000   1.0000   1.0000   1.0000   1.0000   1.0000   1.0000
     1.0000   1.0000   1.0000   1.0000   1.0000   1.0000   1.0000   1.0000
     1.0000   1.0000   1.0000   1.0038   0.5682   0.5647   0.1239   0.0018
     0.0001   0.0000   0.0000   0.0000   0.0000   0.0000   0.0000   0.0000
     0.0000   0.0000   0.0000

          k = 0.0000 0.0000 0.2857 ( 20734 PWs)   bands (ev):

   -69.7552 -69.7202 -69.6915 -69.6899 -69.6896 -69.6880 -69.6878 -69.6870
   -69.6847 -69.6836 -69.6831 -69.6793 -69.6763 -69.6735 -69.6590 -69.6308
   -36.0264 -35.9504 -35.9468 -35.9445 -35.9335 -35.9304 -35.8992 -35.8631
   -35.8590 -35.8501 -35.8437 -35.8392 -35.8379 -35.8243 -35.8232 -35.8196
   -35.7843 -35.7707 -35.7678 -35.7431 -35.7417 -35.7378 -35.7034 -35.7030
   -35.6960 -35.6958 -35.6919 -35.6911 -35.6893 -35.6874 -35.6866 -35.6839
   -35.6592 -35.6571 -35.6408 -35.6386 -35.6362 -35.6340 -35.6324 -35.6173
   -35.5825 -35.5735 -35.5719 -35.5676 -35.5661 -35.5638 -35.5590 -35.5581
     8.7947  10.9342  12.4165  13.4254  13.4377  13.4447  13.5061  13.5912
    13.6442  13.6629  13.6683  13.6994  13.7010  13.7226  14.0433  14.4475
    14.5344  14.7217  14.7967  14.8526  14.8588  14.8969  15.0041  15.0683
    15.1138  15.1352  15.1537  15.2771  15.3023  15.3105  15.5492  15.6132
    15.8744  15.9073  15.9501  15.9674  16.0171  16.0238  16.1112  16.1267
    16.1419  16.1523  16.3224  16.5724  16.5775  16.5776  16.6848  16.6998
    16.7325  16.7445  16.7658  17.0035  17.0345  17.0369  17.1107  17.1826
    17.2023  17.2093  17.2224  17.2493  17.2816  17.3401  17.3469  17.4004
    17.4204  17.4466  17.4530  17.4667  17.4682  17.6860  17.7179  17.7186
    17.7402  17.7627  17.7685  18.1132  18.1291  18.3077  18.3392  18.5465
    18.5533  18.5720  18.5835  18.5969  18.6336  18.6480  18.7466  18.8853
    18.8965  18.9053  20.4690

     occupation numbers 
     1.0000   1.0000   1.0000   1.0000   1.0000   1.0000   1.0000   1.0000
     1.0000   1.0000   1.0000   1.0000   1.0000   1.0000   1.0000   1.0000
     1.0000   1.0000   1.0000   1.0000   1.0000   1.0000   1.0000   1.0000
     1.0000   1.0000   1.0000   1.0000   1.0000   1.0000   1.0000   1.0000
     1.0000   1.0000   1.0000   1.0000   1.0000   1.0000   1.0000   1.0000
     1.0000   1.0000   1.0000   1.0000   1.0000   1.0000   1.0000   1.0000
     1.0000   1.0000   1.0000   1.0000   1.0000   1.0000   1.0000   1.0000
     1.0000   1.0000   1.0000   1.0000   1.0000   1.0000   1.0000   1.0000
     1.0000   1.0000   1.0000   1.0000   1.0000   1.0000   1.0000   1.0000
     1.0000   1.0000   1.0000   1.0000   1.0000   1.0000   1.0000   1.0000
     1.0000   1.0000   1.0000   1.0000   1.0000   1.0000   1.0000   1.0000
     1.0000   1.0000   1.0000   1.0000   1.0000   1.0000   1.0000   1.0000
     1.0000   1.0000   1.0000   1.0000   1.0000   1.0000   1.0000   1.0000
     1.0000   1.0000   1.0000   1.0000   1.0000   1.0000   1.0000   1.0000
     1.0000   1.0000   1.0000   1.0000   1.0000   1.0000   1.0000   1.0000
     1.0000   1.0000   1.0000   1.0000   1.0000   1.0000   1.0000   1.0000
     1.0000   1.0000   1.0000   1.0000   1.0000   1.0000   1.0000   1.0000
     1.0000   1.0000   1.0000   1.0000   1.0000   1.0777   0.9513   0.0001
     0.0000   0.0000   0.0000   0.0000   0.0000   0.0000   0.0000   0.0000
     0.0000   0.0000   0.0000

          k = 0.0000 0.0000 0.4286 ( 20722 PWs)   bands (ev):

   -69.7462 -69.7339 -69.6905 -69.6893 -69.6892 -69.6887 -69.6874 -69.6869
   -69.6857 -69.6836 -69.6834 -69.6783 -69.6772 -69.6737 -69.6477 -69.6377
   -36.0075 -35.9380 -35.9232 -35.9230 -35.9087 -35.9051 -35.9018 -35.8870
   -35.8866 -35.8767 -35.8661 -35.8646 -35.8532 -35.8449 -35.8403 -35.8203
   -35.7996 -35.7965 -35.7589 -35.7487 -35.7475 -35.7274 -35.7058 -35.7031
   -35.6936 -35.6913 -35.6896 -35.6882 -35.6871 -35.6845 -35.6791 -35.6547
   -35.6321 -35.6259 -35.6244 -35.6171 -35.6118 -35.6110 -35.6061 -35.6056
   -35.6021 -35.5933 -35.5905 -35.5841 -35.5839 -35.5804 -35.5770 -35.5755
     8.9156  11.0412  11.9782  13.5431  13.5462  13.5635  13.6282  13.6721
    13.6926  13.7008  13.7494  13.8400  13.8804  13.9832  13.9897  14.1247
    14.2573  14.3586  14.7771  14.8004  14.8464  14.8659  15.0495  15.2737
    15.3298  15.3396  15.3514  15.5000  15.5169  15.5247  15.5767  15.5877
    15.6196  15.6360  15.7812  15.9654  15.9695  15.9794  16.0007  16.0207
    16.0329  16.0438  16.0681  16.0744  16.2675  16.4619  16.4696  16.5226
    16.5650  16.8069  16.9063  16.9322  16.9384  16.9655  17.0841  17.0983
    17.1014  17.1304  17.3353  17.3540  17.3817  17.3930  17.4070  17.4084
    17.4120  17.4308  17.4566  17.4611  17.4642  17.5189  17.7724  17.7836
    17.9815  18.0438  18.0676  18.0722  18.0903  18.1898  18.3235  18.3461
    18.3574  18.3711  18.3901  18.7085  18.7443  18.7600  18.8149  18.8492
    18.8508  18.8715  21.5215

     occupation numbers 
     1.0000   1.0000   1.0000   1.0000   1.0000   1.0000   1.0000   1.0000
     1.0000   1.0000   1.0000   1.0000   1.0000   1.0000   1.0000   1.0000
     1.0000   1.0000   1.0000   1.0000   1.0000   1.0000   1.0000   1.0000
     1.0000   1.0000   1.0000   1.0000   1.0000   1.0000   1.0000   1.0000
     1.0000   1.0000   1.0000   1.0000   1.0000   1.0000   1.0000   1.0000
     1.0000   1.0000   1.0000   1.0000   1.0000   1.0000   1.0000   1.0000
     1.0000   1.0000   1.0000   1.0000   1.0000   1.0000   1.0000   1.0000
     1.0000   1.0000   1.0000   1.0000   1.0000   1.0000   1.0000   1.0000
     1.0000   1.0000   1.0000   1.0000   1.0000   1.0000   1.0000   1.0000
     1.0000   1.0000   1.0000   1.0000   1.0000   1.0000   1.0000   1.0000
     1.0000   1.0000   1.0000   1.0000   1.0000   1.0000   1.0000   1.0000
     1.0000   1.0000   1.0000   1.0000   1.0000   1.0000   1.0000   1.0000
     1.0000   1.0000   1.0000   1.0000   1.0000   1.0000   1.0000   1.0000
     1.0000   1.0000   1.0000   1.0000   1.0000   1.0000   1.0000   1.0000
     1.0000   1.0000   1.0000   1.0000   1.0000   1.0000   1.0000   1.0000
     1.0000   1.0000   1.0000   1.0000   1.0000   1.0000   1.0000   1.0000
     1.0000   1.0000   1.0000   1.0000   1.0000   1.0000   1.0000   1.0000
     1.0000   1.0000   1.0000   1.0000   1.0000   1.0015   1.0374   0.8980
     0.7939   0.6492   0.4410   0.0000   0.0000   0.0000   0.0000   0.0000
     0.0000   0.0000   0.0000

          k = 0.0000 0.1429 0.1429 ( 20718 PWs)   bands (ev):

   -69.7590 -69.7061 -69.7031 -69.6903 -69.6899 -69.6888 -69.6867 -69.6851
   -69.6837 -69.6829 -69.6819 -69.6778 -69.6735 -69.6729 -69.6698 -69.6279
   -36.0377 -35.9639 -35.9560 -35.9537 -35.9472 -35.9418 -35.8794 -35.8663
   -35.8639 -35.8446 -35.8294 -35.8207 -35.8144 -35.8044 -35.8018 -35.7863
   -35.7760 -35.7598 -35.7517 -35.7513 -35.7449 -35.7289 -35.7266 -35.7163
   -35.7110 -35.7020 -35.6996 -35.6957 -35.6955 -35.6871 -35.6847 -35.6831
   -35.6767 -35.6682 -35.6647 -35.6583 -35.6542 -35.6492 -35.6411 -35.6109
   -35.5750 -35.5668 -35.5643 -35.5566 -35.5563 -35.5553 -35.5524 -35.5473
     8.7079  10.8754  12.9919  13.1335  13.3451  13.4208  13.4294  13.4583
    13.4911  13.5331  13.5403  13.6259  13.6851  13.9330  14.0237  14.6026
    14.8086  14.8181  14.8692  14.9139  14.9391  14.9395  14.9678  14.9875
    15.0222  15.0457  15.0653  15.1903  15.2468  15.2531  15.3299  15.6099
    15.6417  15.9546  15.9976  16.0501  16.1173  16.1416  16.1505  16.2141
    16.3589  16.4275  16.5020  16.5388  16.5389  16.5948  16.6616  16.7371
    16.7468  16.9273  17.0695  17.0819  17.1000  17.1276  17.1416  17.1451
    17.2066  17.2252  17.2345  17.2572  17.2938  17.3106  17.3230  17.3965
    17.4441  17.4457  17.4645  17.4670  17.5148  17.5379  17.6578  17.6932
    17.7213  17.9778  17.9978  18.0289  18.0397  18.0527  18.0704  18.2168
    18.2871  18.4801  18.5601  18.5621  18.5862  18.7318  19.1102  19.4671
    19.5175  19.5850  19.6135

     occupation numbers 
     1.0000   1.0000   1.0000   1.0000   1.0000   1.0000   1.0000   1.0000
     1.0000   1.0000   1.0000   1.0000   1.0000   1.0000   1.0000   1.0000
     1.0000   1.0000   1.0000   1.0000   1.0000   1.0000   1.0000   1.0000
     1.0000   1.0000   1.0000   1.0000   1.0000   1.0000   1.0000   1.0000
     1.0000   1.0000   1.0000   1.0000   1.0000   1.0000   1.0000   1.0000
     1.0000   1.0000   1.0000   1.0000   1.0000   1.0000   1.0000   1.0000
     1.0000   1.0000   1.0000   1.0000   1.0000   1.0000   1.0000   1.0000
     1.0000   1.0000   1.0000   1.0000   1.0000   1.0000   1.0000   1.0000
     1.0000   1.0000   1.0000   1.0000   1.0000   1.0000   1.0000   1.0000
     1.0000   1.0000   1.0000   1.0000   1.0000   1.0000   1.0000   1.0000
     1.0000   1.0000   1.0000   1.0000   1.0000   1.0000   1.0000   1.0000
     1.0000   1.0000   1.0000   1.0000   1.0000   1.0000   1.0000   1.0000
     1.0000   1.0000   1.0000   1.0000   1.0000   1.0000   1.0000   1.0000
     1.0000   1.0000   1.0000   1.0000   1.0000   1.0000   1.0000   1.0000
     1.0000   1.0000   1.0000   1.0000   1.0000   1.0000   1.0000   1.0000
     1.0000   1.0000   1.0000   1.0000   1.0000   1.0000   1.0000   1.0000
     1.0000   1.0000   1.0000   1.0000   1.0000   1.0000   1.0000   1.0000
     1.0000   1.0000   1.0000   1.0000   1.0000   1.0000   1.0000   1.0072
     1.0781   0.0108   0.0000   0.0000   0.0000   0.0000   0.0000   0.0000
     0.0000   0.0000   0.0000

          k = 0.0000 0.1429 0.2857 ( 20740 PWs)   bands (ev):

   -69.7534 -69.7192 -69.7027 -69.6922 -69.6897 -69.6891 -69.6869 -69.6858
   -69.6839 -69.6822 -69.6805 -69.6757 -69.6737 -69.6729 -69.6593 -69.6321
   -36.0234 -35.9515 -35.9416 -35.9373 -35.9296 -35.9222 -35.9023 -35.8708
   -35.8620 -35.8593 -35.8493 -35.8420 -35.8367 -35.8302 -35.8258 -35.8044
   -35.7848 -35.7734 -35.7504 -35.7473 -35.7403 -35.7402 -35.7171 -35.7151
   -35.7041 -35.7018 -35.6961 -35.6953 -35.6934 -35.6891 -35.6784 -35.6693
   -35.6667 -35.6505 -35.6385 -35.6357 -35.6280 -35.6241 -35.6191 -35.6121
   -35.5975 -35.5822 -35.5742 -35.5685 -35.5667 -35.5617 -35.5607 -35.5525
     8.8316  10.9864  12.4525  13.1932  13.3807  13.5109  13.5229  13.5885
    13.6661  13.6911  13.6961  13.7322  13.7555  13.9846  14.0959  14.4690
    14.5274  14.6750  14.7856  14.8790  14.9244  14.9383  14.9530  15.0401
    15.0569  15.1062  15.1636  15.2089  15.2364  15.4379  15.5500  15.5668
    15.7758  15.8629  15.9099  15.9137  15.9577  15.9846  16.0061  16.1425
    16.1619  16.2656  16.3493  16.4261  16.5217  16.6700  16.7337  16.7508
    16.7538  16.7900  16.8170  16.8175  16.8460  16.8769  17.0026  17.0462
    17.1037  17.2131  17.2277  17.2531  17.3099  17.3226  17.3250  17.4135
    17.4342  17.4505  17.4729  17.4731  17.6077  17.6245  17.6729  17.7299
    17.7567  17.8093  17.9143  17.9335  17.9693  17.9980  18.0370  18.0914
    18.1381  18.3868  18.4481  18.6713  18.6733  18.7298  19.2275  19.4791
    19.6347  19.9732  20.4255

     occupation numbers 
     1.0000   1.0000   1.0000   1.0000   1.0000   1.0000   1.0000   1.0000
     1.0000   1.0000   1.0000   1.0000   1.0000   1.0000   1.0000   1.0000
     1.0000   1.0000   1.0000   1.0000   1.0000   1.0000   1.0000   1.0000
     1.0000   1.0000   1.0000   1.0000   1.0000   1.0000   1.0000   1.0000
     1.0000   1.0000   1.0000   1.0000   1.0000   1.0000   1.0000   1.0000
     1.0000   1.0000   1.0000   1.0000   1.0000   1.0000   1.0000   1.0000
     1.0000   1.0000   1.0000   1.0000   1.0000   1.0000   1.0000   1.0000
     1.0000   1.0000   1.0000   1.0000   1.0000   1.0000   1.0000   1.0000
     1.0000   1.0000   1.0000   1.0000   1.0000   1.0000   1.0000   1.0000
     1.0000   1.0000   1.0000   1.0000   1.0000   1.0000   1.0000   1.0000
     1.0000   1.0000   1.0000   1.0000   1.0000   1.0000   1.0000   1.0000
     1.0000   1.0000   1.0000   1.0000   1.0000   1.0000   1.0000   1.0000
     1.0000   1.0000   1.0000   1.0000   1.0000   1.0000   1.0000   1.0000
     1.0000   1.0000   1.0000   1.0000   1.0000   1.0000   1.0000   1.0000
     1.0000   1.0000   1.0000   1.0000   1.0000   1.0000   1.0000   1.0000
     1.0000   1.0000   1.0000   1.0000   1.0000   1.0000   1.0000   1.0000
     1.0000   1.0000   1.0000   1.0000   1.0000   1.0000   1.0000   1.0000
     1.0000   1.0000   1.0000   1.0000   1.0000   1.0000   1.0000   1.0000
     1.0000   0.4760   0.0589   0.0000   0.0000   0.0000   0.0000   0.0000
     0.0000   0.0000   0.0000

          k = 0.0000 0.1429 0.4286 ( 20734 PWs)   bands (ev):

   -69.7446 -69.7326 -69.7003 -69.6956 -69.6889 -69.6881 -69.6873 -69.6869
   -69.6840 -69.6815 -69.6803 -69.6752 -69.6740 -69.6730 -69.6484 -69.6387
   -36.0066 -35.9399 -35.9259 -35.9198 -35.9069 -35.9032 -35.8953 -35.8868
   -35.8857 -35.8760 -35.8675 -35.8669 -35.8587 -35.8456 -35.8386 -35.8057
   -35.7974 -35.7827 -35.7579 -35.7535 -35.7485 -35.7301 -35.7175 -35.7087
   -35.6996 -35.6990 -35.6960 -35.6953 -35.6830 -35.6746 -35.6702 -35.6679
   -35.6427 -35.6361 -35.6274 -35.6220 -35.6122 -35.6119 -35.6068 -35.6040
   -35.5917 -35.5898 -35.5863 -35.5860 -35.5833 -35.5759 -35.5723 -35.5644
     8.9431  11.1253  12.0049  13.3064  13.4022  13.6171  13.6422  13.7631
    13.7699  13.7869  13.8666  13.9125  13.9586  14.0130  14.0295  14.1586
    14.2785  14.3754  14.7897  14.8272  14.8772  14.8945  15.0091  15.2240
    15.2367  15.2860  15.3055  15.3441  15.4441  15.4993  15.5127  15.6764
    15.7318  15.7367  15.7917  15.8232  15.8947  15.9113  15.9125  15.9359
    15.9670  15.9861  16.0005  16.1257  16.3284  16.3789  16.4336  16.6057
    16.6366  16.8508  16.8768  16.9286  16.9467  16.9740  16.9954  17.1062
    17.1083  17.1762  17.1899  17.3098  17.3277  17.3556  17.3792  17.3894
    17.4101  17.4363  17.4790  17.5003  17.5087  17.5112  17.5706  17.6900
    17.8128  17.8735  17.9278  17.9478  17.9641  18.0672  18.0827  18.1287
    18.1539  18.2914  18.3328  18.5232  18.8176  18.9730  19.1596  19.2473
    19.8234  20.0441  21.3616

     occupation numbers 
     1.0000   1.0000   1.0000   1.0000   1.0000   1.0000   1.0000   1.0000
     1.0000   1.0000   1.0000   1.0000   1.0000   1.0000   1.0000   1.0000
     1.0000   1.0000   1.0000   1.0000   1.0000   1.0000   1.0000   1.0000
     1.0000   1.0000   1.0000   1.0000   1.0000   1.0000   1.0000   1.0000
     1.0000   1.0000   1.0000   1.0000   1.0000   1.0000   1.0000   1.0000
     1.0000   1.0000   1.0000   1.0000   1.0000   1.0000   1.0000   1.0000
     1.0000   1.0000   1.0000   1.0000   1.0000   1.0000   1.0000   1.0000
     1.0000   1.0000   1.0000   1.0000   1.0000   1.0000   1.0000   1.0000
     1.0000   1.0000   1.0000   1.0000   1.0000   1.0000   1.0000   1.0000
     1.0000   1.0000   1.0000   1.0000   1.0000   1.0000   1.0000   1.0000
     1.0000   1.0000   1.0000   1.0000   1.0000   1.0000   1.0000   1.0000
     1.0000   1.0000   1.0000   1.0000   1.0000   1.0000   1.0000   1.0000
     1.0000   1.0000   1.0000   1.0000   1.0000   1.0000   1.0000   1.0000
     1.0000   1.0000   1.0000   1.0000   1.0000   1.0000   1.0000   1.0000
     1.0000   1.0000   1.0000   1.0000   1.0000   1.0000   1.0000   1.0000
     1.0000   1.0000   1.0000   1.0000   1.0000   1.0000   1.0000   1.0000
     1.0000   1.0000   1.0000   1.0000   1.0000   1.0000   1.0000   1.0000
     1.0000   1.0000   1.0000   1.0000   1.0000   1.0000   1.0000   1.0000
     1.0001   1.0813   0.9921   0.0006   0.0000   0.0000   0.0000   0.0000
     0.0000   0.0000   0.0000

          k = 0.0000 0.2857 0.2857 ( 20748 PWs)   bands (ev):

   -69.7482 -69.7179 -69.7146 -69.6988 -69.6891 -69.6887 -69.6867 -69.6854
   -69.6844 -69.6820 -69.6794 -69.6739 -69.6721 -69.6629 -69.6595 -69.6358
   -36.0156 -35.9457 -35.9282 -35.9270 -35.9185 -35.9141 -35.8915 -35.8855
   -35.8732 -35.8698 -35.8647 -35.8543 -35.8524 -35.8379 -35.8104 -35.7892
   -35.7878 -35.7583 -35.7551 -35.7514 -35.7451 -35.7409 -35.7336 -35.7181
   -35.7116 -35.7081 -35.7049 -35.7045 -35.6982 -35.6959 -35.6696 -35.6686
   -35.6479 -35.6371 -35.6334 -35.6305 -35.6261 -35.6191 -35.6135 -35.6049
   -35.5903 -35.5860 -35.5814 -35.5750 -35.5732 -35.5696 -35.5572 -35.5494
     8.9189  11.1393  12.4335  12.7954  13.2860  13.6981  13.7123  13.7343
    13.7890  13.7959  13.8239  13.8478  13.8869  14.0775  14.1639  14.4534
    14.5877  14.5984  14.6218  14.8358  14.9766  14.9836  15.0142  15.0251
    15.0539  15.0807  15.0957  15.1257  15.3534  15.4252  15.5079  15.6695
    15.6812  15.7286  15.7722  15.7877  15.7995  15.8347  15.8779  15.9656
    16.1272  16.3071  16.3176  16.3313  16.4368  16.4674  16.4777  16.5684
    16.6631  16.7282  16.8115  16.8436  16.9159  16.9564  16.9710  17.0566
    17.1767  17.2070  17.2091  17.2384  17.2450  17.2740  17.2790  17.2939
    17.3590  17.4050  17.4213  17.4504  17.4884  17.5782  17.6193  17.6355
    17.7210  17.7347  17.7539  17.7731  17.7845  17.7914  17.8099  18.1462
    18.1981  18.2335  18.5193  18.6932  18.9529  19.0561  19.8430  20.2593
    20.2657  20.2902  20.8144

     occupation numbers 
     1.0000   1.0000   1.0000   1.0000   1.0000   1.0000   1.0000   1.0000
     1.0000   1.0000   1.0000   1.0000   1.0000   1.0000   1.0000   1.0000
     1.0000   1.0000   1.0000   1.0000   1.0000   1.0000   1.0000   1.0000
     1.0000   1.0000   1.0000   1.0000   1.0000   1.0000   1.0000   1.0000
     1.0000   1.0000   1.0000   1.0000   1.0000   1.0000   1.0000   1.0000
     1.0000   1.0000   1.0000   1.0000   1.0000   1.0000   1.0000   1.0000
     1.0000   1.0000   1.0000   1.0000   1.0000   1.0000   1.0000   1.0000
     1.0000   1.0000   1.0000   1.0000   1.0000   1.0000   1.0000   1.0000
     1.0000   1.0000   1.0000   1.0000   1.0000   1.0000   1.0000   1.0000
     1.0000   1.0000   1.0000   1.0000   1.0000   1.0000   1.0000   1.0000
     1.0000   1.0000   1.0000   1.0000   1.0000   1.0000   1.0000   1.0000
     1.0000   1.0000   1.0000   1.0000   1.0000   1.0000   1.0000   1.0000
     1.0000   1.0000   1.0000   1.0000   1.0000   1.0000   1.0000   1.0000
     1.0000   1.0000   1.0000   1.0000   1.0000   1.0000   1.0000   1.0000
     1.0000   1.0000   1.0000   1.0000   1.0000   1.0000   1.0000   1.0000
     1.0000   1.0000   1.0000   1.0000   1.0000   1.0000   1.0000   1.0000
     1.0000   1.0000   1.0000   1.0000   1.0000   1.0000   1.0000   1.0000
     1.0000   1.0000   1.0000   1.0000   1.0000   1.0000   1.0000   1.0001
     1.0025   1.0162   0.0008   0.0000   0.0000   0.0000   0.0000   0.0000
     0.0000   0.0000   0.0000

          k = 0.0000 0.2857 0.4286 ( 20746 PWs)   bands (ev):

   -69.7400 -69.7288 -69.7118 -69.7051 -69.6882 -69.6877 -69.6871 -69.6865
   -69.6847 -69.6810 -69.6799 -69.6741 -69.6681 -69.6640 -69.6507 -69.6418
   -36.0043 -35.9424 -35.9253 -35.9106 -35.9033 -35.8992 -35.8984 -35.8882
   -35.8835 -35.8813 -35.8739 -35.8718 -35.8541 -35.8345 -35.8162 -35.7911
   -35.7818 -35.7703 -35.7631 -35.7513 -35.7400 -35.7383 -35.7344 -35.7165
   -35.7152 -35.7109 -35.7097 -35.7047 -35.7038 -35.6852 -35.6720 -35.6613
   -35.6548 -35.6473 -35.6393 -35.6183 -35.6181 -35.6095 -35.6011 -35.6004
   -35.5924 -35.5874 -35.5854 -35.5774 -35.5744 -35.5680 -35.5604 -35.5530
     9.0071  11.3666  12.0722  12.8473  13.1950  13.8212  13.8398  13.9029
    13.9442  13.9502  13.9641  14.0439  14.0741  14.0920  14.1021  14.2766
    14.3492  14.4076  14.7518  14.8882  14.9361  14.9533  14.9640  15.0255
    15.1215  15.1316  15.1538  15.2385  15.2896  15.4345  15.4595  15.6594
    15.6915  15.7057  15.7246  15.7346  15.7572  15.7803  15.8198  15.8781
    15.8868  15.9278  15.9832  16.0078  16.0771  16.0984  16.6851  16.7955
    16.8051  16.8800  16.8927  16.9333  16.9456  16.9656  16.9983  16.9989
    17.1204  17.1440  17.1643  17.1751  17.1899  17.2614  17.3128  17.3314
    17.3368  17.3738  17.4366  17.4510  17.4670  17.4815  17.5293  17.5401
    17.5537  17.5882  17.5998  17.7711  17.7850  17.8069  17.8236  17.8626
    18.3842  18.4621  18.4963  18.6234  19.2645  19.4662  19.7560  19.8922
    20.8533  21.1282  21.2313

     occupation numbers 
     1.0000   1.0000   1.0000   1.0000   1.0000   1.0000   1.0000   1.0000
     1.0000   1.0000   1.0000   1.0000   1.0000   1.0000   1.0000   1.0000
     1.0000   1.0000   1.0000   1.0000   1.0000   1.0000   1.0000   1.0000
     1.0000   1.0000   1.0000   1.0000   1.0000   1.0000   1.0000   1.0000
     1.0000   1.0000   1.0000   1.0000   1.0000   1.0000   1.0000   1.0000
     1.0000   1.0000   1.0000   1.0000   1.0000   1.0000   1.0000   1.0000
     1.0000   1.0000   1.0000   1.0000   1.0000   1.0000   1.0000   1.0000
     1.0000   1.0000   1.0000   1.0000   1.0000   1.0000   1.0000   1.0000
     1.0000   1.0000   1.0000   1.0000   1.0000   1.0000   1.0000   1.0000
     1.0000   1.0000   1.0000   1.0000   1.0000   1.0000   1.0000   1.0000
     1.0000   1.0000   1.0000   1.0000   1.0000   1.0000   1.0000   1.0000
     1.0000   1.0000   1.0000   1.0000   1.0000   1.0000   1.0000   1.0000
     1.0000   1.0000   1.0000   1.0000   1.0000   1.0000   1.0000   1.0000
     1.0000   1.0000   1.0000   1.0000   1.0000   1.0000   1.0000   1.0000
     1.0000   1.0000   1.0000   1.0000   1.0000   1.0000   1.0000   1.0000
     1.0000   1.0000   1.0000   1.0000   1.0000   1.0000   1.0000   1.0000
     1.0000   1.0000   1.0000   1.0000   1.0000   1.0000   1.0000   1.0000
     1.0000   1.0000   1.0000   1.0000   1.0000   1.0000   1.0000   1.0000
     0.5043   0.0296   0.0039   0.0000   0.0000   0.0000   0.0000   0.0000
     0.0000   0.0000   0.0000

          k = 0.0000 0.4286 0.4286 ( 20778 PWs)   bands (ev):

   -69.7328 -69.7245 -69.7214 -69.7137 -69.6875 -69.6873 -69.6867 -69.6861
   -69.6856 -69.6813 -69.6801 -69.6742 -69.6618 -69.6566 -69.6535 -69.6463
   -36.0021 -35.9430 -35.9194 -35.9081 -35.9018 -35.8999 -35.8958 -35.8925
   -35.8882 -35.8846 -35.8788 -35.8774 -35.8309 -35.8182 -35.7974 -35.7838
   -35.7691 -35.7679 -35.7560 -35.7553 -35.7523 -35.7376 -35.7347 -35.7224
   -35.7198 -35.7193 -35.7174 -35.7148 -35.7128 -35.7093 -35.6992 -35.6754
   -35.6508 -35.6440 -35.6324 -35.6196 -35.6194 -35.6073 -35.5997 -35.5941
   -35.5938 -35.5870 -35.5864 -35.5795 -35.5644 -35.5587 -35.5539 -35.5481
     9.0609  11.7139  12.1059  12.4139  13.0328  13.9839  14.0468  14.0687
    14.0780  14.0869  14.1085  14.1533  14.1663  14.1829  14.2703  14.3306
    14.3707  14.5355  14.6031  14.7995  14.9363  14.9428  14.9734  14.9835
    14.9883  15.0168  15.0186  15.0321  15.3140  15.3175  15.4408  15.5074
    15.5711  15.6003  15.6008  15.6609  15.6778  15.7087  15.7124  15.7210
    15.8250  15.8634  15.8710  15.9433  16.0381  16.3887  16.4269  16.7888
    16.8887  16.9362  16.9640  16.9649  17.0215  17.0305  17.0374  17.0846
    17.1018  17.1252  17.1730  17.1959  17.2052  17.2271  17.2333  17.2426
    17.2624  17.2683  17.2906  17.3076  17.3323  17.3664  17.3764  17.4920
    17.5690  17.5774  17.6281  17.6487  17.6635  17.6728  17.7136  17.7146
    18.5395  18.5706  18.5783  18.6410  19.7184  20.0207  20.3095  20.5718
    20.5856  20.6099  21.1684

     occupation numbers 
     1.0000   1.0000   1.0000   1.0000   1.0000   1.0000   1.0000   1.0000
     1.0000   1.0000   1.0000   1.0000   1.0000   1.0000   1.0000   1.0000
     1.0000   1.0000   1.0000   1.0000   1.0000   1.0000   1.0000   1.0000
     1.0000   1.0000   1.0000   1.0000   1.0000   1.0000   1.0000   1.0000
     1.0000   1.0000   1.0000   1.0000   1.0000   1.0000   1.0000   1.0000
     1.0000   1.0000   1.0000   1.0000   1.0000   1.0000   1.0000   1.0000
     1.0000   1.0000   1.0000   1.0000   1.0000   1.0000   1.0000   1.0000
     1.0000   1.0000   1.0000   1.0000   1.0000   1.0000   1.0000   1.0000
     1.0000   1.0000   1.0000   1.0000   1.0000   1.0000   1.0000   1.0000
     1.0000   1.0000   1.0000   1.0000   1.0000   1.0000   1.0000   1.0000
     1.0000   1.0000   1.0000   1.0000   1.0000   1.0000   1.0000   1.0000
     1.0000   1.0000   1.0000   1.0000   1.0000   1.0000   1.0000   1.0000
     1.0000   1.0000   1.0000   1.0000   1.0000   1.0000   1.0000   1.0000
     1.0000   1.0000   1.0000   1.0000   1.0000   1.0000   1.0000   1.0000
     1.0000   1.0000   1.0000   1.0000   1.0000   1.0000   1.0000   1.0000
     1.0000   1.0000   1.0000   1.0000   1.0000   1.0000   1.0000   1.0000
     1.0000   1.0000   1.0000   1.0000   1.0000   1.0000   1.0000   1.0000
     1.0000   1.0000   1.0000   1.0000   1.0000   1.0000   1.0000   1.0000
     0.0002   0.0000   0.0000   0.0000   0.0000   0.0000   0.0000   0.0000
     0.0000   0.0000   0.0000

          k = 0.1429 0.1429 0.1429 ( 20743 PWs)   bands (ev):

   -69.7571 -69.7061 -69.7039 -69.7018 -69.6897 -69.6882 -69.6868 -69.6831
   -69.6823 -69.6819 -69.6790 -69.6767 -69.6738 -69.6705 -69.6693 -69.6293
   -36.0328 -35.9601 -35.9513 -35.9478 -35.9432 -35.9330 -35.8860 -35.8713
   -35.8644 -35.8423 -35.8389 -35.8327 -35.8252 -35.8086 -35.8026 -35.7906
   -35.7724 -35.7673 -35.7605 -35.7551 -35.7404 -35.7369 -35.7239 -35.7188
   -35.7134 -35.7028 -35.6970 -35.6933 -35.6903 -35.6862 -35.6802 -35.6779
   -35.6722 -35.6672 -35.6597 -35.6586 -35.6422 -35.6323 -35.6274 -35.6138
   -35.5878 -35.5717 -35.5628 -35.5609 -35.5606 -35.5551 -35.5550 -35.5487
     8.7562  10.9206  13.0441  13.0575  13.2454  13.3862  13.4032  13.4945
    13.5310  13.5354  13.5890  13.5936  13.8770  14.0573  14.0725  14.5800
    14.7192  14.8436  14.8678  14.8954  14.9060  14.9417  14.9611  14.9725
    15.0176  15.0413  15.0470  15.1728  15.2305  15.2724  15.5171  15.5408
    15.5683  15.9349  15.9520  16.0046  16.0258  16.0596  16.2197  16.3180
    16.3591  16.3895  16.4109  16.4755  16.4892  16.5355  16.6608  16.6934
    16.7804  16.7880  16.8013  17.1039  17.1455  17.1768  17.1906  17.2245
    17.2301  17.2366  17.2421  17.2671  17.2836  17.2892  17.3699  17.3795
    17.4042  17.4315  17.4479  17.4542  17.4695  17.4736  17.5375  17.5616
    17.7493  17.7621  17.7834  17.9596  17.9899  18.0032  18.0076  18.2951
    18.3437  18.3528  18.3955  18.3986  18.9506  19.1592  19.1743  19.4150
    19.5492  19.5755  19.9366

     occupation numbers 
     1.0000   1.0000   1.0000   1.0000   1.0000   1.0000   1.0000   1.0000
     1.0000   1.0000   1.0000   1.0000   1.0000   1.0000   1.0000   1.0000
     1.0000   1.0000   1.0000   1.0000   1.0000   1.0000   1.0000   1.0000
     1.0000   1.0000   1.0000   1.0000   1.0000   1.0000   1.0000   1.0000
     1.0000   1.0000   1.0000   1.0000   1.0000   1.0000   1.0000   1.0000
     1.0000   1.0000   1.0000   1.0000   1.0000   1.0000   1.0000   1.0000
     1.0000   1.0000   1.0000   1.0000   1.0000   1.0000   1.0000   1.0000
     1.0000   1.0000   1.0000   1.0000   1.0000   1.0000   1.0000   1.0000
     1.0000   1.0000   1.0000   1.0000   1.0000   1.0000   1.0000   1.0000
     1.0000   1.0000   1.0000   1.0000   1.0000   1.0000   1.0000   1.0000
     1.0000   1.0000   1.0000   1.0000   1.0000   1.0000   1.0000   1.0000
     1.0000   1.0000   1.0000   1.0000   1.0000   1.0000   1.0000   1.0000
     1.0000   1.0000   1.0000   1.0000   1.0000   1.0000   1.0000   1.0000
     1.0000   1.0000   1.0000   1.0000   1.0000   1.0000   1.0000   1.0000
     1.0000   1.0000   1.0000   1.0000   1.0000   1.0000   1.0000   1.0000
     1.0000   1.0000   1.0000   1.0000   1.0000   1.0000   1.0000   1.0000
     1.0000   1.0000   1.0000   1.0000   1.0000   1.0000   1.0000   1.0000
     1.0000   1.0000   1.0000   1.0000   1.0000   1.0000   1.0000   1.0829
     0.9175   0.8386   0.3867   0.3567   0.0000   0.0000   0.0000   0.0000
     0.0000   0.0000   0.0000

          k = 0.1429 0.1429 0.2857 ( 20735 PWs)   bands (ev):

   -69.7517 -69.7183 -69.7035 -69.7006 -69.6931 -69.6907 -69.6869 -69.6828
   -69.6817 -69.6802 -69.6784 -69.6748 -69.6738 -69.6698 -69.6598 -69.6333
   -36.0196 -35.9478 -35.9379 -35.9355 -35.9273 -35.9115 -35.9033 -35.8799
   -35.8670 -35.8603 -35.8547 -35.8501 -35.8389 -35.8254 -35.8117 -35.8007
   -35.7876 -35.7825 -35.7591 -35.7517 -35.7423 -35.7316 -35.7266 -35.7230
   -35.7146 -35.7082 -35.6999 -35.6915 -35.6849 -35.6763 -35.6731 -35.6640
   -35.6612 -35.6561 -35.6402 -35.6357 -35.6255 -35.6211 -35.6122 -35.6078
   -35.6025 -35.5833 -35.5746 -35.5725 -35.5666 -35.5642 -35.5580 -35.5535
     8.8734  11.0474  12.4994  13.1832  13.3113  13.3989  13.4744  13.6300
    13.6700  13.7046  13.7232  13.7577  13.9718  14.1052  14.1537  14.4600
    14.5318  14.6606  14.8118  14.8495  14.9098  14.9355  14.9771  15.0089
    15.0379  15.0669  15.1750  15.1948  15.3435  15.4336  15.4489  15.5009
    15.7528  15.7849  15.8299  15.8788  15.9153  15.9351  16.0322  16.0861
    16.1092  16.1809  16.3690  16.4373  16.5053  16.5638  16.6148  16.6659
    16.6913  16.7094  16.7865  16.8499  16.8717  17.0268  17.0681  17.0819
    17.1176  17.1387  17.2225  17.2651  17.2868  17.2963  17.3318  17.3995
    17.4085  17.4440  17.4537  17.4833  17.5327  17.5450  17.5783  17.6339
    17.6591  17.6786  17.8900  17.9575  17.9651  18.0019  18.0339  18.0626
    18.1435  18.4006  18.4114  18.4330  18.7615  18.8294  19.5676  19.8093
    19.9726  20.2356  20.4193

     occupation numbers 
     1.0000   1.0000   1.0000   1.0000   1.0000   1.0000   1.0000   1.0000
     1.0000   1.0000   1.0000   1.0000   1.0000   1.0000   1.0000   1.0000
     1.0000   1.0000   1.0000   1.0000   1.0000   1.0000   1.0000   1.0000
     1.0000   1.0000   1.0000   1.0000   1.0000   1.0000   1.0000   1.0000
     1.0000   1.0000   1.0000   1.0000   1.0000   1.0000   1.0000   1.0000
     1.0000   1.0000   1.0000   1.0000   1.0000   1.0000   1.0000   1.0000
     1.0000   1.0000   1.0000   1.0000   1.0000   1.0000   1.0000   1.0000
     1.0000   1.0000   1.0000   1.0000   1.0000   1.0000   1.0000   1.0000
     1.0000   1.0000   1.0000   1.0000   1.0000   1.0000   1.0000   1.0000
     1.0000   1.0000   1.0000   1.0000   1.0000   1.0000   1.0000   1.0000
     1.0000   1.0000   1.0000   1.0000   1.0000   1.0000   1.0000   1.0000
     1.0000   1.0000   1.0000   1.0000   1.0000   1.0000   1.0000   1.0000
     1.0000   1.0000   1.0000   1.0000   1.0000   1.0000   1.0000   1.0000
     1.0000   1.0000   1.0000   1.0000   1.0000   1.0000   1.0000   1.0000
     1.0000   1.0000   1.0000   1.0000   1.0000   1.0000   1.0000   1.0000
     1.0000   1.0000   1.0000   1.0000   1.0000   1.0000   1.0000   1.0000
     1.0000   1.0000   1.0000   1.0000   1.0000   1.0000   1.0000   1.0000
     1.0000   1.0000   1.0000   1.0000   1.0000   1.0000   1.0000   1.0000
     1.0000   0.3372   0.2450   0.1131   0.0000   0.0000   0.0000   0.0000
     0.0000   0.0000   0.0000

          k = 0.1429 0.1429 0.4286 ( 20749 PWs)   bands (ev):

   -69.7431 -69.7313 -69.7010 -69.6982 -69.6966 -69.6940 -69.6860 -69.6835
   -69.6812 -69.6792 -69.6786 -69.6743 -69.6737 -69.6698 -69.6492 -69.6397
   -36.0041 -35.9398 -35.9246 -35.9167 -35.9117 -35.8975 -35.8935 -35.8882
   -35.8819 -35.8789 -35.8720 -35.8649 -35.8547 -35.8401 -35.8356 -35.8064
   -35.7933 -35.7764 -35.7699 -35.7543 -35.7495 -35.7298 -35.7256 -35.7198
   -35.7145 -35.7018 -35.6954 -35.6869 -35.6776 -35.6720 -35.6695 -35.6662
   -35.6506 -35.6384 -35.6305 -35.6259 -35.6164 -35.6112 -35.6055 -35.5968
   -35.5936 -35.5893 -35.5850 -35.5847 -35.5796 -35.5735 -35.5661 -35.5636
     8.9780  11.2107  12.0467  13.3164  13.3741  13.4109  13.5448  13.8249
    13.8482  13.9139  13.9453  14.0038  14.0244  14.0489  14.0827  14.1790
    14.3052  14.3953  14.7772  14.8366  14.9035  14.9263  15.0035  15.1662
    15.1856  15.2029  15.3045  15.3615  15.4006  15.4024  15.5203  15.6856
    15.7185  15.7476  15.7559  15.7731  15.8005  15.8274  15.8535  15.8618
    15.8779  15.9171  15.9945  16.0789  16.1714  16.2396  16.5601  16.6749
    16.7791  16.8881  16.9002  16.9316  16.9387  16.9517  16.9734  17.0214
    17.0402  17.1405  17.1676  17.2837  17.3060  17.3424  17.3711  17.3724
    17.3973  17.4179  17.4293  17.4489  17.4830  17.5308  17.6400  17.6523
    17.6935  17.6981  17.7128  17.8011  18.1458  18.1784  18.2006  18.2160
    18.2455  18.3303  18.3451  18.3609  18.4929  18.5233  19.7903  20.1144
    20.2661  20.3711  20.8634

     occupation numbers 
     1.0000   1.0000   1.0000   1.0000   1.0000   1.0000   1.0000   1.0000
     1.0000   1.0000   1.0000   1.0000   1.0000   1.0000   1.0000   1.0000
     1.0000   1.0000   1.0000   1.0000   1.0000   1.0000   1.0000   1.0000
     1.0000   1.0000   1.0000   1.0000   1.0000   1.0000   1.0000   1.0000
     1.0000   1.0000   1.0000   1.0000   1.0000   1.0000   1.0000   1.0000
     1.0000   1.0000   1.0000   1.0000   1.0000   1.0000   1.0000   1.0000
     1.0000   1.0000   1.0000   1.0000   1.0000   1.0000   1.0000   1.0000
     1.0000   1.0000   1.0000   1.0000   1.0000   1.0000   1.0000   1.0000
     1.0000   1.0000   1.0000   1.0000   1.0000   1.0000   1.0000   1.0000
     1.0000   1.0000   1.0000   1.0000   1.0000   1.0000   1.0000   1.0000
     1.0000   1.0000   1.0000   1.0000   1.0000   1.0000   1.0000   1.0000
     1.0000   1.0000   1.0000   1.0000   1.0000   1.0000   1.0000   1.0000
     1.0000   1.0000   1.0000   1.0000   1.0000   1.0000   1.0000   1.0000
     1.0000   1.0000   1.0000   1.0000   1.0000   1.0000   1.0000   1.0000
     1.0000   1.0000   1.0000   1.0000   1.0000   1.0000   1.0000   1.0000
     1.0000   1.0000   1.0000   1.0000   1.0000   1.0000   1.0000   1.0000
     1.0000   1.0000   1.0000   1.0000   1.0000   1.0000   1.0000   1.0000
     1.0000   1.0000   1.0000   1.0000   1.0001   1.0007   1.0029   1.0069
     1.0267   1.0063   0.9060   0.7586   0.0049   0.0006   0.0000   0.0000
     0.0000   0.0000   0.0000

          k = 0.1429 0.2857 0.2857 ( 20760 PWs)   bands (ev):

   -69.7466 -69.7170 -69.7137 -69.7004 -69.6983 -69.6917 -69.6895 -69.6840
   -69.6803 -69.6785 -69.6768 -69.6722 -69.6705 -69.6632 -69.6598 -69.6369
   -36.0119 -35.9418 -35.9299 -35.9239 -35.9141 -35.9053 -35.8909 -35.8839
   -35.8763 -35.8708 -35.8668 -35.8616 -35.8446 -35.8309 -35.8125 -35.7954
   -35.7864 -35.7772 -35.7649 -35.7590 -35.7538 -35.7477 -35.7387 -35.7251
   -35.7189 -35.7039 -35.6960 -35.6913 -35.6819 -35.6744 -35.6694 -35.6665
   -35.6491 -35.6446 -35.6411 -35.6329 -35.6289 -35.6200 -35.6082 -35.5993
   -35.5886 -35.5842 -35.5811 -35.5766 -35.5726 -35.5669 -35.5605 -35.5533
     8.9546  11.2100  12.5116  12.8327  13.2968  13.4868  13.6278  13.6983
    13.8068  13.8540  13.8673  13.8930  14.0738  14.2203  14.2382  14.4694
    14.5580  14.6038  14.6824  14.8013  14.8846  14.9657  14.9937  15.0528
    15.0919  15.1013  15.1205  15.2298  15.2924  15.3664  15.4241  15.5734
    15.6031  15.6832  15.7301  15.7551  15.7758  15.7880  15.8621  15.9121
    15.9752  16.0664  16.2273  16.2667  16.2962  16.3303  16.4042  16.5769
    16.6786  16.7463  16.7931  16.9656  17.0183  17.0456  17.0736  17.0875
    17.1733  17.2039  17.2315  17.2449  17.2701  17.2846  17.3018  17.3234
    17.3372  17.3633  17.4038  17.4122  17.4440  17.4727  17.5006  17.5138
    17.6083  17.6344  17.6500  17.9445  17.9844  18.0300  18.0454  18.1532
    18.1890  18.2936  18.4221  18.4275  18.5203  19.3865  19.5479  20.0356
    20.6951  21.1633  21.1678

     occupation numbers 
     1.0000   1.0000   1.0000   1.0000   1.0000   1.0000   1.0000   1.0000
     1.0000   1.0000   1.0000   1.0000   1.0000   1.0000   1.0000   1.0000
     1.0000   1.0000   1.0000   1.0000   1.0000   1.0000   1.0000   1.0000
     1.0000   1.0000   1.0000   1.0000   1.0000   1.0000   1.0000   1.0000
     1.0000   1.0000   1.0000   1.0000   1.0000   1.0000   1.0000   1.0000
     1.0000   1.0000   1.0000   1.0000   1.0000   1.0000   1.0000   1.0000
     1.0000   1.0000   1.0000   1.0000   1.0000   1.0000   1.0000   1.0000
     1.0000   1.0000   1.0000   1.0000   1.0000   1.0000   1.0000   1.0000
     1.0000   1.0000   1.0000   1.0000   1.0000   1.0000   1.0000   1.0000
     1.0000   1.0000   1.0000   1.0000   1.0000   1.0000   1.0000   1.0000
     1.0000   1.0000   1.0000   1.0000   1.0000   1.0000   1.0000   1.0000
     1.0000   1.0000   1.0000   1.0000   1.0000   1.0000   1.0000   1.0000
     1.0000   1.0000   1.0000   1.0000   1.0000   1.0000   1.0000   1.0000
     1.0000   1.0000   1.0000   1.0000   1.0000   1.0000   1.0000   1.0000
     1.0000   1.0000   1.0000   1.0000   1.0000   1.0000   1.0000   1.0000
     1.0000   1.0000   1.0000   1.0000   1.0000   1.0000   1.0000   1.0000
     1.0000   1.0000   1.0000   1.0000   1.0000   1.0000   1.0000   1.0000
     1.0000   1.0000   1.0000   1.0000   1.0000   1.0000   1.0000   1.0001
     1.0014   1.0824   0.1709   0.1400   0.0007   0.0000   0.0000   0.0000
     0.0000   0.0000   0.0000

          k = 0.1429 0.2857 0.4286 ( 20736 PWs)   bands (ev):

   -69.7386 -69.7276 -69.7111 -69.7044 -69.6979 -69.6944 -69.6888 -69.6854
   -69.6799 -69.6781 -69.6763 -69.6707 -69.6681 -69.6641 -69.6513 -69.6427
   -36.0010 -35.9401 -35.9227 -35.9084 -35.9044 -35.8986 -35.8920 -35.8842
   -35.8816 -35.8796 -35.8766 -35.8584 -35.8530 -35.8396 -35.8203 -35.8020
   -35.7859 -35.7785 -35.7747 -35.7563 -35.7497 -35.7459 -35.7376 -35.7356
   -35.7243 -35.7060 -35.6967 -35.6888 -35.6837 -35.6784 -35.6715 -35.6589
   -35.6522 -35.6459 -35.6376 -35.6215 -35.6169 -35.6129 -35.6047 -35.5953
   -35.5916 -35.5890 -35.5846 -35.5771 -35.5727 -35.5684 -35.5627 -35.5563
     9.0383  11.4530  12.1387  12.9242  13.2202  13.5921  13.6643  13.9341
    14.0145  14.0325  14.0638  14.0984  14.1535  14.1736  14.2033  14.2975
    14.3690  14.4389  14.7381  14.8868  14.9334  14.9556  14.9898  15.0090
    15.0840  15.1668  15.2042  15.2272  15.2751  15.3783  15.4111  15.5531
    15.6162  15.6446  15.6651  15.6789  15.6982  15.7270  15.7444  15.7798
    15.8056  15.8415  15.8636  15.8858  15.9500  15.9732  16.5555  16.8079
    16.8262  16.9045  16.9343  16.9658  16.9811  17.0025  17.0107  17.0608
    17.0804  17.1147  17.1458  17.1641  17.2558  17.3076  17.3214  17.3321
    17.3575  17.3855  17.4081  17.4277  17.4393  17.4667  17.4921  17.5488
    17.5869  17.6188  17.6851  17.7568  17.7700  17.9868  18.0410  18.0921
    18.3193  18.3657  18.4140  18.4895  18.6580  19.0640  20.1642  20.4334
    20.8351  21.0635  21.3866

     occupation numbers 
     1.0000   1.0000   1.0000   1.0000   1.0000   1.0000   1.0000   1.0000
     1.0000   1.0000   1.0000   1.0000   1.0000   1.0000   1.0000   1.0000
     1.0000   1.0000   1.0000   1.0000   1.0000   1.0000   1.0000   1.0000
     1.0000   1.0000   1.0000   1.0000   1.0000   1.0000   1.0000   1.0000
     1.0000   1.0000   1.0000   1.0000   1.0000   1.0000   1.0000   1.0000
     1.0000   1.0000   1.0000   1.0000   1.0000   1.0000   1.0000   1.0000
     1.0000   1.0000   1.0000   1.0000   1.0000   1.0000   1.0000   1.0000
     1.0000   1.0000   1.0000   1.0000   1.0000   1.0000   1.0000   1.0000
     1.0000   1.0000   1.0000   1.0000   1.0000   1.0000   1.0000   1.0000
     1.0000   1.0000   1.0000   1.0000   1.0000   1.0000   1.0000   1.0000
     1.0000   1.0000   1.0000   1.0000   1.0000   1.0000   1.0000   1.0000
     1.0000   1.0000   1.0000   1.0000   1.0000   1.0000   1.0000   1.0000
     1.0000   1.0000   1.0000   1.0000   1.0000   1.0000   1.0000   1.0000
     1.0000   1.0000   1.0000   1.0000   1.0000   1.0000   1.0000   1.0000
     1.0000   1.0000   1.0000   1.0000   1.0000   1.0000   1.0000   1.0000
     1.0000   1.0000   1.0000   1.0000   1.0000   1.0000   1.0000   1.0000
     1.0000   1.0000   1.0000   1.0000   1.0000   1.0000   1.0000   1.0000
     1.0000   1.0000   1.0000   1.0000   1.0000   1.0000   1.0000   1.0000
     1.0524   0.7079   0.2254   0.0061   0.0000   0.0000   0.0000   0.0000
     0.0000   0.0000   0.0000

          k = 0.1429 0.4286 0.4286 ( 20764 PWs)   bands (ev):

   -69.7316 -69.7234 -69.7203 -69.7128 -69.6959 -69.6933 -69.6914 -69.6872
   -69.6793 -69.6777 -69.6759 -69.6703 -69.6622 -69.6572 -69.6540 -69.6470
   -35.9981 -35.9395 -35.9157 -35.9048 -35.8990 -35.8976 -35.8923 -35.8879
   -35.8842 -35.8814 -35.8762 -35.8665 -35.8434 -35.8192 -35.8075 -35.7909
   -35.7845 -35.7788 -35.7733 -35.7672 -35.7608 -35.7582 -35.7545 -35.7399
   -35.7263 -35.7147 -35.6980 -35.6924 -35.6881 -35.6834 -35.6796 -35.6677
   -35.6471 -35.6442 -35.6300 -35.6215 -35.6172 -35.6065 -35.6017 -35.5980
   -35.5938 -35.5891 -35.5854 -35.5793 -35.5675 -35.5621 -35.5576 -35.5520
     9.0888  11.8035  12.1966  12.4994  13.0545  13.8361  13.9509  13.9791
    14.1060  14.1380  14.1608  14.1811  14.2655  14.3134  14.3317  14.3795
    14.4648  14.5554  14.6117  14.7885  14.8923  14.9542  14.9616  14.9817
    15.0020  15.0174  15.0507  15.1049  15.2248  15.3049  15.4076  15.4434
    15.4831  15.5315  15.5507  15.5593  15.5776  15.6161  15.6369  15.6389
    15.7248  15.7597  15.7666  15.8198  15.8823  16.1808  16.2102  16.5281
    16.9524  17.0069  17.0338  17.0484  17.0770  17.0955  17.1306  17.1535
    17.1721  17.1903  17.2011  17.2073  17.2380  17.2598  17.2758  17.2862
    17.3222  17.3409  17.3546  17.3661  17.3943  17.4227  17.4361  17.4467
    17.5018  17.5212  17.5597  17.6639  17.7391  17.7992  17.8109  17.8689
    18.4372  18.4712  18.4796  18.5273  19.1465  19.6171  19.7573  20.3379
    20.9409  21.4616  21.7027

     occupation numbers 
     1.0000   1.0000   1.0000   1.0000   1.0000   1.0000   1.0000   1.0000
     1.0000   1.0000   1.0000   1.0000   1.0000   1.0000   1.0000   1.0000
     1.0000   1.0000   1.0000   1.0000   1.0000   1.0000   1.0000   1.0000
     1.0000   1.0000   1.0000   1.0000   1.0000   1.0000   1.0000   1.0000
     1.0000   1.0000   1.0000   1.0000   1.0000   1.0000   1.0000   1.0000
     1.0000   1.0000   1.0000   1.0000   1.0000   1.0000   1.0000   1.0000
     1.0000   1.0000   1.0000   1.0000   1.0000   1.0000   1.0000   1.0000
     1.0000   1.0000   1.0000   1.0000   1.0000   1.0000   1.0000   1.0000
     1.0000   1.0000   1.0000   1.0000   1.0000   1.0000   1.0000   1.0000
     1.0000   1.0000   1.0000   1.0000   1.0000   1.0000   1.0000   1.0000
     1.0000   1.0000   1.0000   1.0000   1.0000   1.0000   1.0000   1.0000
     1.0000   1.0000   1.0000   1.0000   1.0000   1.0000   1.0000   1.0000
     1.0000   1.0000   1.0000   1.0000   1.0000   1.0000   1.0000   1.0000
     1.0000   1.0000   1.0000   1.0000   1.0000   1.0000   1.0000   1.0000
     1.0000   1.0000   1.0000   1.0000   1.0000   1.0000   1.0000   1.0000
     1.0000   1.0000   1.0000   1.0000   1.0000   1.0000   1.0000   1.0000
     1.0000   1.0000   1.0000   1.0000   1.0000   1.0000   1.0000   1.0000
     1.0000   1.0000   1.0000   1.0000   1.0000   1.0000   1.0000   1.0000
     0.0952   0.0181   0.0112   0.0004   0.0000   0.0000   0.0000   0.0000
     0.0000   0.0000   0.0000

          k = 0.2857 0.2857 0.2857 ( 20771 PWs)   bands (ev):

   -69.7418 -69.7149 -69.7126 -69.7104 -69.6986 -69.6964 -69.6949 -69.6866
   -69.6771 -69.6752 -69.6730 -69.6701 -69.6653 -69.6621 -69.6603 -69.6401
   -36.0023 -35.9311 -35.9304 -35.9176 -35.9009 -35.8986 -35.8844 -35.8814
   -35.8780 -35.8722 -35.8710 -35.8626 -35.8404 -35.8337 -35.8229 -35.7956
   -35.7922 -35.7839 -35.7791 -35.7762 -35.7724 -35.7615 -35.7520 -35.7446
   -35.7117 -35.6977 -35.6808 -35.6759 -35.6689 -35.6665 -35.6597 -35.6575
   -35.6549 -35.6468 -35.6408 -35.6355 -35.6324 -35.6164 -35.6046 -35.5946
   -35.5894 -35.5829 -35.5798 -35.5755 -35.5714 -35.5677 -35.5657 -35.5621
     9.0392  11.4126  12.7265  12.7316  13.1228  13.5104  13.5209  13.7337
    13.9215  14.0114  14.0211  14.0436  14.2199  14.3792  14.3955  14.4768
    14.5586  14.5774  14.6121  14.7875  14.8881  14.9086  15.0195  15.0402
    15.0590  15.1647  15.2152  15.2295  15.2476  15.2549  15.4193  15.4436
    15.4629  15.5637  15.6019  15.6453  15.6525  15.6805  15.7041  15.7382
    15.7409  15.9088  15.9673  15.9921  16.0026  16.0159  16.0353  16.7808
    16.8051  16.8439  16.8642  16.8981  17.1103  17.1362  17.1565  17.1784
    17.1841  17.1913  17.2013  17.2133  17.2386  17.2530  17.2694  17.3324
    17.3651  17.3995  17.4013  17.4065  17.4585  17.4735  17.4905  17.5140
    17.5187  17.7813  17.7899  17.8118  18.0969  18.1163  18.1344  18.1503
    18.1647  18.1802  18.1975  18.2009  18.9166  19.0107  19.0118  20.8266
    21.1878  21.5161  21.5492

     occupation numbers 
     1.0000   1.0000   1.0000   1.0000   1.0000   1.0000   1.0000   1.0000
     1.0000   1.0000   1.0000   1.0000   1.0000   1.0000   1.0000   1.0000
     1.0000   1.0000   1.0000   1.0000   1.0000   1.0000   1.0000   1.0000
     1.0000   1.0000   1.0000   1.0000   1.0000   1.0000   1.0000   1.0000
     1.0000   1.0000   1.0000   1.0000   1.0000   1.0000   1.0000   1.0000
     1.0000   1.0000   1.0000   1.0000   1.0000   1.0000   1.0000   1.0000
     1.0000   1.0000   1.0000   1.0000   1.0000   1.0000   1.0000   1.0000
     1.0000   1.0000   1.0000   1.0000   1.0000   1.0000   1.0000   1.0000
     1.0000   1.0000   1.0000   1.0000   1.0000   1.0000   1.0000   1.0000
[...]
   -33.4544 -33.4269 -33.3770 -33.3437 -33.3293 -33.3228 -33.3161 -33.3145
   -33.2951 -33.2924 -33.2790 -33.2758 -33.2688 -33.2636 -33.2538 -33.2366
   -33.2318 -33.2279 -33.2185 -33.2083 -33.1922 -33.1875 -33.1798 -33.1592
   -33.1476 -33.1096 -33.0956 -33.0799 -33.0609 -33.0493 -33.0445 -33.0349
   -33.0307 -33.0251 -33.0209 -33.0116 -33.0030 -32.9997 -32.9939 -32.9844
   -32.9815 -32.9700 -32.9674 -32.9638 -32.9611 -32.9586 -32.9368 -32.9326
     9.9200  12.2806  12.7150  13.0451  13.5116  13.9791  14.2367  14.5817
    15.1820  15.9034  15.9170  15.9550  15.9818  16.0189  16.0408  16.1100
    16.1157  16.2485  16.3305  16.4301  16.4990  16.5587  16.6061  16.6424
    16.6658  16.6815  16.7520  16.8011  16.8125  16.8417  16.8914  16.9187
    16.9387  17.0121  17.0193  17.0398  17.1176  17.1669  17.1989  17.2085
    17.2487  17.2781  17.3114  17.3292  17.4042  17.5403  17.5941  17.8530
    19.3484  19.4020  19.4564  19.5191  19.5534  19.6020  19.6423  19.6803
    19.7069  19.7287  19.7513  19.7714  19.7828  19.8109  19.8303  19.8393
    19.8746  19.9253  19.9892  20.0355  20.0418  20.1182  20.1406  20.1517
    20.1655  20.1785  20.2216  20.2263  20.2309  20.2589  20.2659  20.2876
    20.3794  20.3937  20.4427  20.4775  20.6067  20.9903  21.0394  21.5169
    23.4705  24.0195  24.2921

     occupation numbers 
     1.0000   1.0000   1.0000   1.0000   1.0000   1.0000   1.0000   1.0000
     1.0000   1.0000   1.0000   1.0000   1.0000   1.0000   1.0000   1.0000
     1.0000   1.0000   1.0000   1.0000   1.0000   1.0000   1.0000   1.0000
     1.0000   1.0000   1.0000   1.0000   1.0000   1.0000   1.0000   1.0000
     1.0000   1.0000   1.0000   1.0000   1.0000   1.0000   1.0000   1.0000
     1.0000   1.0000   1.0000   1.0000   1.0000   1.0000   1.0000   1.0000
     1.0000   1.0000   1.0000   1.0000   1.0000   1.0000   1.0000   1.0000
     1.0000   1.0000   1.0000   1.0000   1.0000   1.0000   1.0000   1.0000
     1.0000   1.0000   1.0000   1.0000   1.0000   1.0000   1.0000   1.0000
     1.0000   1.0000   1.0000   1.0000   1.0000   1.0000   1.0000   1.0000
     1.0000   1.0000   1.0000   1.0000   1.0000   1.0000   1.0000   1.0000
     1.0000   1.0000   1.0000   1.0000   1.0000   1.0000   1.0000   1.0000
     1.0000   1.0000   1.0000   1.0000   1.0000   1.0000   1.0000   1.0000
     1.0000   1.0000   1.0000   1.0000   1.0000   1.0000   1.0000   1.0000
     0.0000   0.0000   0.0000   0.0000   0.0000   0.0000   0.0000   0.0000
     0.0000   0.0000   0.0000   0.0000   0.0000   0.0000   0.0000   0.0000
     0.0000   0.0000   0.0000   0.0000   0.0000   0.0000   0.0000   0.0000
     0.0000   0.0000   0.0000   0.0000   0.0000   0.0000   0.0000   0.0000
     0.0000   0.0000   0.0000   0.0000   0.0000   0.0000   0.0000   0.0000
     0.0000   0.0000   0.0000

     the Fermi energy is    18.4047 ev

!    total energy              =   -5269.49369494 Ry
     Harris-Foulkes estimate   =   -5269.49369494 Ry
     estimated scf accuracy    <          5.2E-10 Ry

     total all-electron energy =    -40730.238259 Ry

     The total energy is the sum of the following terms:

     one-electron contribution =   -1750.98289934 Ry
     hartree contribution      =    1046.19192449 Ry
     xc contribution           =    -558.21841280 Ry
     ewald contribution        =   -2788.03554580 Ry
     one-center paw contrib.   =   -1218.44852589 Ry
     smearing contrib. (-TS)   =      -0.00023560 Ry

     total magnetization       =    34.98 Bohr mag/cell
     absolute magnetization    =    36.86 Bohr mag/cell

     convergence has been achieved in   8 iterations

     negative rho (up, down):  0.000E+00 4.680E-04

     Forces acting on atoms (Ry/au):

     atom    1 type  1   force =    -0.00011135    0.00024554    0.00000000
     atom    2 type  1   force =     0.00000000   -0.00003101    0.00031890
     atom    3 type  1   force =     0.00031920    0.00002590    0.00000000
     atom    4 type  1   force =     0.00000000   -0.00003101   -0.00031890
     atom    5 type  1   force =     0.00039160    0.00039766    0.00000000
     atom    6 type  1   force =     0.00000000    0.00050741    0.00022854
     atom    7 type  1   force =     0.00022684   -0.00050063    0.00000000
     atom    8 type  1   force =     0.00000000    0.00050741   -0.00022854
     atom    9 type  1   force =     0.00011135    0.00024554    0.00000000
     atom   10 type  1   force =     0.00000000   -0.00025330   -0.00010895
     atom   11 type  1   force =    -0.00031920    0.00002590    0.00000000
     atom   12 type  1   force =     0.00000000   -0.00025330    0.00010895
     atom   13 type  1   force =    -0.00039160    0.00039766    0.00000000
     atom   14 type  1   force =     0.00000000   -0.00039120    0.00039110
     atom   15 type  1   force =    -0.00022684   -0.00050063    0.00000000
     atom   16 type  1   force =     0.00000000   -0.00039120   -0.00039110
     atom   17 type  2   force =     0.00000000   -0.00000072    0.00000000
     The non-local contrib.  to forces
     atom    1 type  1   force =     0.00191693    0.00190351    0.00000000
     atom    2 type  1   force =     0.00000000   -0.06812712    0.17897833
     atom    3 type  1   force =     0.17897664    0.06812717    0.00000000
     atom    4 type  1   force =     0.00000000   -0.06812712   -0.17897833
     atom    5 type  1   force =     0.00467719   -0.00264187    0.00000000
     atom    6 type  1   force =     0.00000000    0.03263844    0.01460854
     atom    7 type  1   force =     0.01460750   -0.03264379    0.00000000
     atom    8 type  1   force =     0.00000000    0.03263844   -0.01460854
     atom    9 type  1   force =    -0.00191693    0.00190351    0.00000000
     atom   10 type  1   force =     0.00000000   -0.00190199    0.00191887
     atom   11 type  1   force =    -0.17897664    0.06812717    0.00000000
     atom   12 type  1   force =     0.00000000   -0.00190199   -0.00191887
     atom   13 type  1   force =    -0.00467719   -0.00264187    0.00000000
     atom   14 type  1   force =     0.00000000    0.00264292    0.00467759
     atom   15 type  1   force =    -0.01460750   -0.03264379    0.00000000
     atom   16 type  1   force =     0.00000000    0.00264292   -0.00467759
     atom   17 type  2   force =     0.00000000    0.00000006    0.00000000
     The ionic contribution  to forces
     atom    1 type  1   force =     0.78255282    0.07523327    0.00000003
     atom    2 type  1   force =     0.00094213   -1.65050471    3.31458367
     atom    3 type  1   force =     3.31460725    1.64952443   -0.00000002
     atom    4 type  1   force =     0.00094213   -1.65050471   -3.31458368
     atom    5 type  1   force =    -0.16759988    0.12745129    0.00000003
     atom    6 type  1   force =     0.00095049    1.52368658    1.54274778
     atom    7 type  1   force =     1.54280343   -1.52227383   -0.00000002
     atom    8 type  1   force =     0.00095049    1.52368658   -1.54274779
     atom    9 type  1   force =    -0.78256832    0.07524559    0.00000003
     atom   10 type  1   force =    -0.00092459   -0.07673322    0.78255121
     atom   11 type  1   force =    -3.31473126    1.64952150   -0.00000002
     atom   12 type  1   force =    -0.00092459   -0.07673322   -0.78255122
     atom   13 type  1   force =     0.16757186    0.12743502    0.00000003
     atom   14 type  1   force =    -0.00092652   -0.12635513   -0.16770458
     atom   15 type  1   force =    -1.54281156   -1.52226617   -0.00000002
     atom   16 type  1   force =    -0.00092652   -0.12635513    0.16770457
     atom   17 type  2   force =     0.00009262   -0.00005812    0.00000000
     The local contribution  to forces
     atom    1 type  1   force =    -0.78465796   -0.07696341    0.00000000
     atom    2 type  1   force =     0.00270596    1.72007737   -3.49500105
     atom    3 type  1   force =    -3.49508929   -1.71910437   -0.00000017
     atom    4 type  1   force =     0.00270596    1.72007737    3.49500072
     atom    5 type  1   force =     0.16363920   -0.12453410    0.00000000
     atom    6 type  1   force =     0.00268750   -1.55687402   -1.55780279
     atom    7 type  1   force =    -1.55786997    1.55547133   -0.00000016
     atom    8 type  1   force =     0.00268750   -1.55687402    1.55780246
     atom    9 type  1   force =     0.78465796   -0.07696341    0.00000000
     atom   10 type  1   force =    -0.00271577    0.07844314   -0.78464010
     atom   11 type  1   force =     3.49508929   -1.71910437   -0.00000017
     atom   12 type  1   force =    -0.00271577    0.07844314    0.78463977
     atom   13 type  1   force =    -0.16363920   -0.12453410    0.00000000
     atom   14 type  1   force =    -0.00271049    0.12345521    0.16376405
     atom   15 type  1   force =     1.55786997    1.55547133   -0.00000016
     atom   16 type  1   force =    -0.00271049    0.12345521   -0.16376438
     atom   17 type  2   force =    -0.00000047    0.00005657    0.00000000
     The core correction contribution to forces
     atom    1 type  1   force =     0.00005609    0.00006192    0.00000000
     atom    2 type  1   force =    -0.00009902   -0.00144861    0.00172019
     atom    3 type  1   force =     0.00172004    0.00144868    0.00000001
     atom    4 type  1   force =    -0.00009902   -0.00144861   -0.00172017
     atom    5 type  1   force =    -0.00032876    0.00014588    0.00000000
     atom    6 type  1   force =    -0.00009872    0.00102721    0.00065638
     atom    7 type  1   force =     0.00065646   -0.00102670    0.00000001
     atom    8 type  1   force =    -0.00009872    0.00102721   -0.00065637
     atom    9 type  1   force =    -0.00005609    0.00006192    0.00000000
     atom   10 type  1   force =     0.00009889   -0.00006255    0.00005622
     atom   11 type  1   force =    -0.00172004    0.00144868    0.00000001
     atom   12 type  1   force =     0.00009889   -0.00006255   -0.00005621
     atom   13 type  1   force =     0.00032876    0.00014588    0.00000000
     atom   14 type  1   force =     0.00009896   -0.00014604   -0.00032877
     atom   15 type  1   force =    -0.00065646   -0.00102670    0.00000001
     atom   16 type  1   force =     0.00009896   -0.00014604    0.00032878
     atom   17 type  2   force =     0.00000000    0.00000000    0.00000000
     The Hubbard contrib.    to forces
     atom    1 type  1   force =     0.00000000    0.00000000    0.00000000
     atom    2 type  1   force =     0.00000000    0.00000000    0.00000000
     atom    3 type  1   force =     0.00000000    0.00000000    0.00000000
     atom    4 type  1   force =     0.00000000    0.00000000    0.00000000
     atom    5 type  1   force =     0.00000000    0.00000000    0.00000000
     atom    6 type  1   force =     0.00000000    0.00000000    0.00000000
     atom    7 type  1   force =     0.00000000    0.00000000    0.00000000
     atom    8 type  1   force =     0.00000000    0.00000000    0.00000000
     atom    9 type  1   force =     0.00000000    0.00000000    0.00000000
     atom   10 type  1   force =     0.00000000    0.00000000    0.00000000
     atom   11 type  1   force =     0.00000000    0.00000000    0.00000000
     atom   12 type  1   force =     0.00000000    0.00000000    0.00000000
     atom   13 type  1   force =     0.00000000    0.00000000    0.00000000
     atom   14 type  1   force =     0.00000000    0.00000000    0.00000000
     atom   15 type  1   force =     0.00000000    0.00000000    0.00000000
     atom   16 type  1   force =     0.00000000    0.00000000    0.00000000
     atom   17 type  2   force =     0.00000000    0.00000000    0.00000000
     The SCF correction term to forces
     atom    1 type  1   force =     0.00001302    0.00000388    0.00000000
     atom    2 type  1   force =     0.00000000   -0.00002814    0.00003760
     atom    3 type  1   force =     0.00004259    0.00003127    0.00000000
     atom    4 type  1   force =     0.00000000   -0.00002814   -0.00003760
     atom    5 type  1   force =    -0.00001020   -0.00001558    0.00000000
     atom    6 type  1   force =     0.00000000    0.00002899    0.00001846
     atom    7 type  1   force =     0.00002536   -0.00003169    0.00000000
     atom    8 type  1   force =     0.00000000    0.00002899   -0.00001846
     atom    9 type  1   force =    -0.00001301    0.00000390    0.00000000
     atom   10 type  1   force =     0.00000000    0.00000112    0.00000469
     atom   11 type  1   force =    -0.00004251    0.00003121    0.00000000
     atom   12 type  1   force =     0.00000000    0.00000112   -0.00000469
     atom   13 type  1   force =     0.00001011   -0.00001564    0.00000000
     atom   14 type  1   force =     0.00000000    0.00001163   -0.00001735
     atom   15 type  1   force =    -0.00002536   -0.00003167    0.00000000
     atom   16 type  1   force =     0.00000000    0.00001163    0.00001735
     atom   17 type  2   force =     0.00000000    0.00000057    0.00000000

     Total force =     0.001779     Total SCF correction =     0.000133


     entering subroutine stress ...


     negative rho (up, down):  0.000E+00 4.680E-04
          total   stress  (Ry/bohr**3)                   (kbar)     P=   40.08
   0.00028151   0.00000000   0.00000000         41.41      0.00      0.00
   0.00000000   0.00025426   0.00000000          0.00     37.40      0.00
   0.00000000   0.00000000   0.00028151          0.00      0.00     41.41

     kinetic stress (kbar)  82258.69      0.00      0.00
                                0.00  82263.68      0.00
                                0.00      0.00  82258.69

     local   stress (kbar)  70750.14      0.00      0.00
                                0.00  71177.56      0.00
                                0.00      0.00  70750.14

     nonloc. stress (kbar) -64238.31      0.00      0.00
                                0.00 -64217.99      0.00
                                0.00      0.00 -64238.31

     hartree stress (kbar)  41803.55      0.00      0.00
                                0.00  41680.55      0.00
                                0.00      0.00  41803.56

     exc-cor stress (kbar)  -2637.67      0.00      0.00
                                0.00  -2638.60      0.00
                                0.00      0.00  -2637.67

     corecor stress (kbar) -16711.39      0.00      0.00
                                0.00 -16711.28      0.00
                                0.00      0.00 -16711.39

     ewald   stress (kbar)-111183.60      0.00      0.00
                                0.00-111516.51      0.00
                                0.00      0.00-111183.59

     hubbard stress (kbar)      0.00      0.00      0.00
                                0.00      0.00      0.00
                                0.00      0.00      0.00

     london  stress (kbar)      0.00      0.00      0.00
                                0.00      0.00      0.00
                                0.00      0.00      0.00

     XDM     stress (kbar)      0.00      0.00      0.00
                                0.00      0.00      0.00
                                0.00      0.00      0.00

     dft-nl  stress (kbar)      0.00      0.00      0.00
                                0.00      0.00      0.00
                                0.00      0.00      0.00

     TS-vdW  stress (kbar)      0.00      0.00      0.00
                                0.00      0.00      0.00
                                0.00      0.00      0.00



     bfgs converged in   6 scf cycles and   5 bfgs steps
     (criteria: energy <  1.0E-04, force <  1.0E-03)

     End of BFGS Geometry Optimization

     Final energy   =   -5269.4936949436 Ry
Begin final coordinates

ATOMIC_POSITIONS (angstrom)
Fe      -0.006765577  -0.003627915   0.000000000
Fe       1.416822755   1.448670073   1.357067248
Fe      -0.059763553  -0.031838550   2.833661872
Fe       1.416822755   1.448670073   4.310256496
Fe      -0.009197338   2.843406005   0.000000000
Fe       1.416822755   4.246025138   1.409409869
Fe      -0.007419546   2.838109126   2.833661872
Fe       1.416822755   4.246025138   4.257913875
Fe       2.840427449  -0.003627915   0.000000000
Fe       4.250500989   1.420477785   1.410067035
Fe       2.893425425  -0.031838550   2.833661872
Fe       4.250500989   1.420477785   4.257256709
Fe       2.842859210   2.843406005   0.000000000
Fe       4.250500989   4.240744791   1.407636079
Fe       2.841081418   2.838109126   2.833661872
Fe       4.250500989   4.240744791   4.259687665
H        1.416822755   0.708420935   2.833661872
End final coordinates



     Writing output data file Fe_relaxHt.save
 
     init_run     :    144.65s CPU    150.22s WALL (       1 calls)
     electrons    :  26039.94s CPU  27168.24s WALL (       6 calls)
     update_pot   :      9.90s CPU     10.26s WALL (       5 calls)
     forces       :    263.30s CPU    268.34s WALL (       6 calls)
     stress       :   1540.10s CPU   1548.54s WALL (       6 calls)

     Called by init_run:
     wfcinit      :    141.17s CPU    146.52s WALL (       1 calls)
     potinit      :      1.77s CPU      1.83s WALL (       1 calls)

     Called by electrons:
     c_bands      :  22751.37s CPU  23782.17s WALL (      67 calls)
     sum_band     :   3140.63s CPU   3226.83s WALL (      67 calls)
     v_of_rho     :     21.72s CPU     23.44s WALL (      72 calls)
     v_h          :      0.92s CPU      1.05s WALL (      72 calls)
     v_xc         :     24.27s CPU     26.16s WALL (      84 calls)
     newd         :     31.07s CPU     37.73s WALL (      72 calls)
     PAW_pot      :    101.52s CPU    103.60s WALL (      77 calls)
     mix_rho      :      8.87s CPU      9.94s WALL (      67 calls)

     Called by c_bands:
     init_us_2    :    120.99s CPU    122.56s WALL (   19456 calls)
     cegterg      :  22120.22s CPU  23144.21s WALL (    8576 calls)

     Called by sum_band:
     sum_band:bec :      6.63s CPU      6.63s WALL (    9216 calls)
     addusdens    :     63.46s CPU     71.17s WALL (      67 calls)

     Called by *egterg:
     h_psi        :  12354.48s CPU  12701.05s WALL (   29506 calls)
     s_psi        :   1406.51s CPU   1422.07s WALL (   29506 calls)
     g_psi        :     69.08s CPU     69.19s WALL (   20802 calls)
     cdiaghg      :   3371.29s CPU   3487.39s WALL (   28610 calls)
     cegterg:over :   2044.11s CPU   2096.26s WALL (   20802 calls)
     cegterg:upda :   1348.21s CPU   1427.43s WALL (   20802 calls)
     cegterg:last :    906.41s CPU    924.80s WALL (    9088 calls)
     cdiaghg:chol :    233.13s CPU    233.51s WALL (   28610 calls)
     cdiaghg:inve :     29.98s CPU     30.11s WALL (   28610 calls)
     cdiaghg:para :    857.92s CPU    941.78s WALL (   57220 calls)

     Called by h_psi:
     h_psi:vloc   :   9304.53s CPU   9595.94s WALL (   29506 calls)
     h_psi:vnl    :   2947.33s CPU   3002.37s WALL (   29506 calls)
     add_vuspsi   :   1434.01s CPU   1457.05s WALL (   29506 calls)

     General routines
     calbec       :   2428.27s CPU   2478.01s WALL (   42562 calls)
     fft          :     20.80s CPU     22.28s WALL (    2444 calls)
     ffts         :      2.66s CPU      2.88s WALL (    1536 calls)
     fftw         :   8166.75s CPU   8510.23s WALL ( 7859258 calls)
     interpolate  :      2.95s CPU      3.52s WALL (     278 calls)
     davcio       :      0.01s CPU     16.72s WALL (     128 calls)
 
     Parallel routines
     fft_scatter  :   1915.47s CPU   2002.28s WALL ( 7863238 calls)

     PAW routines
     PAW_pot      :    101.52s CPU    103.60s WALL (      77 calls)
     PAW_symme    :      0.06s CPU      0.05s WALL (     144 calls)
 
     PWSCF        :     7h47m CPU        8h 7m WALL

 
   This run was terminated on:  14:58:50  12May2016            

=------------------------------------------------------------------------------=
   JOB DONE.
=------------------------------------------------------------------------------=
