
     Program PWSCF v.5.3.0 (svn rev. 11974) starts on 11May2016 at 23:45:50 

     This program is part of the open-source Quantum ESPRESSO suite
     for quantum simulation of materials; please cite
         "P. Giannozzi et al., J. Phys.:Condens. Matter 21 395502 (2009);
          URL http://www.quantum-espresso.org", 
     in publications or presentations arising from this work. More details at
     http://www.quantum-espresso.org/quote

     Parallel version (MPI), running on    12 processors
     R & G space division:  proc/nbgrp/npool/nimage =      12
     Reading input from fe.relax2x2Hoct.in
Warning: card &CELL ignored
Warning: card    CELL_DYNAMICS = 'BFGS', ignored
Warning: card    CELL_FACTOR=1.5 ignored
Warning: card     PRESS = 0.0 ignored
Warning: card  / ignored

     Current dimensions of program PWSCF are:
     Max number of different atomic species (ntypx) = 10
     Max number of k-points (npk) =  40000
     Max angular momentum in pseudopotentials (lmaxx) =  3
               file Fe.pbe-spn-kjpaw_psl.0.2.1.UPF: wavefunction(s)  3D renormalized
               file H.pbe-kjpaw_psl.0.1.UPF: wavefunction(s)  1S renormalized

     Subspace diagonalization in iterative solution of the eigenvalue problem:
     one sub-group per k-point group (pool) will be used
     scalapack distributed-memory algorithm (size of sub-group:  2*  2 procs)

 
     Parallelization info
     --------------------
     sticks:   dense  smooth     PW     G-vecs:    dense   smooth      PW
     Min         685     304     82                46693    13827    1964
     Max         686     305     83                46696    13857    1967
     Sum        8229    3657    989               560339   166101   23583
 
     Generating pointlists ...
     new r_m :   0.1031 (alat units)  1.1044 (a.u.) for type    1
     new r_m :   0.1031 (alat units)  1.1044 (a.u.) for type    2


     bravais-lattice index     =            0
     lattice parameter (alat)  =      10.7097  a.u.
     unit-cell volume          =    1228.3742 (a.u.)^3
     number of atoms/cell      =           17
     number of atomic types    =            2
     number of electrons       =       257.00
     number of Kohn-Sham states=          155
     kinetic-energy cutoff     =     100.0000  Ry
     charge density cutoff     =     900.0000  Ry
     convergence threshold     =      1.0E-07
     mixing beta               =       0.5000
     number of iterations used =            8  local-TF  mixing
     Exchange-correlation      =  SLA  PW   PBX  PBC ( 1  4  3  4 0 0)
     nstep                     =           50


     celldm(1)=  10.709690  celldm(2)=   0.000000  celldm(3)=   0.000000
     celldm(4)=   0.000000  celldm(5)=   0.000000  celldm(6)=   0.000000

     crystal axes: (cart. coord. in units of alat)
               a(1) = (   1.000000   0.000000   0.000000 )  
               a(2) = (   0.000000   1.000000   0.000000 )  
               a(3) = (   0.000000   0.000000   1.000000 )  

     reciprocal axes: (cart. coord. in units 2 pi/alat)
               b(1) = (  1.000000  0.000000  0.000000 )  
               b(2) = (  0.000000  1.000000  0.000000 )  
               b(3) = (  0.000000  0.000000  1.000000 )  


     PseudoPot. # 1 for Fe read from file:
     /home/staff/ifeanyijohn.onuorah/pseudo/Fe.pbe-spn-kjpaw_psl.0.2.1.UPF
     MD5 check sum: ad5d885054e60f2e780f97f310f6a303
     Pseudo is Projector augmented-wave + core cor, Zval = 16.0
     Generated using "atomic" code by A. Dal Corso  v.5.0.2 svn rev. 9415
     Shape of augmentation charge: PSQ
     Using radial grid of 1191 points,  6 beta functions with: 
                l(1) =   0
                l(2) =   0
                l(3) =   1
                l(4) =   1
                l(5) =   2
                l(6) =   2
     Q(r) pseudized with 0 coefficients 


     PseudoPot. # 2 for  H read from file:
     /home/staff/ifeanyijohn.onuorah/pseudo/H.pbe-kjpaw_psl.0.1.UPF
     MD5 check sum: c439e23f70ca22dfb59b46f37ccc36ba
     Pseudo is Projector augmented-wave, Zval =  1.0
     Generated using "atomic" code by A. Dal Corso  v.5.0.2 svn rev. 9415
     Shape of augmentation charge: PSQ
     Using radial grid of  929 points,  2 beta functions with: 
                l(1) =   0
                l(2) =   0
     Q(r) pseudized with 0 coefficients 


     atomic species   valence    mass     pseudopotential
        Fe            16.00    56.00000     Fe( 1.00)
        H              1.00     1.00000      H( 1.00)

     Starting magnetic structure 
     atomic species   magnetization
        Fe           0.500
        H            0.000

     16 Sym. Ops., with inversion, found (12 have fractional translation)


                                    s                        frac. trans.

      isym =  1     identity                                     

 cryst.   s( 1) = (     1          0          0      )
                  (     0          1          0      )
                  (     0          0          1      )

 cart.    s( 1) = (  1.0000000  0.0000000  0.0000000 )
                  (  0.0000000  1.0000000  0.0000000 )
                  (  0.0000000  0.0000000  1.0000000 )


      isym =  2     180 deg rotation - cart. axis [0,0,1]        

 cryst.   s( 2) = (    -1          0          0      )    f =(  0.5000000 )
                  (     0         -1          0      )       (  0.5000000 )
                  (     0          0          1      )       (  0.0000000 )

 cart.    s( 2) = ( -1.0000000  0.0000000  0.0000000 )    f =(  0.5000000 )
                  (  0.0000000 -1.0000000  0.0000000 )       (  0.5000000 )
                  (  0.0000000  0.0000000  1.0000000 )       (  0.0000000 )


      isym =  3     180 deg rotation - cart. axis [0,1,0]        

 cryst.   s( 3) = (    -1          0          0      )    f =(  0.5000000 )
                  (     0          1          0      )       (  0.0000000 )
                  (     0          0         -1      )       (  0.0000000 )

 cart.    s( 3) = ( -1.0000000  0.0000000  0.0000000 )    f =(  0.5000000 )
                  (  0.0000000  1.0000000  0.0000000 )       (  0.0000000 )
                  (  0.0000000  0.0000000 -1.0000000 )       (  0.0000000 )


      isym =  4     180 deg rotation - cart. axis [1,0,0]        

 cryst.   s( 4) = (     1          0          0      )    f =(  0.0000000 )
                  (     0         -1          0      )       (  0.5000000 )
                  (     0          0         -1      )       (  0.0000000 )

 cart.    s( 4) = (  1.0000000  0.0000000  0.0000000 )    f =(  0.0000000 )
                  (  0.0000000 -1.0000000  0.0000000 )       (  0.5000000 )
                  (  0.0000000  0.0000000 -1.0000000 )       (  0.0000000 )


      isym =  5     180 deg rotation - cart. axis [1,1,0]        

 cryst.   s( 5) = (     0          1          0      )
                  (     1          0          0      )
                  (     0          0         -1      )

 cart.    s( 5) = (  0.0000000  1.0000000  0.0000000 )
                  (  1.0000000  0.0000000  0.0000000 )
                  (  0.0000000  0.0000000 -1.0000000 )


      isym =  6     180 deg rotation - cart. axis [1,-1,0]       

 cryst.   s( 6) = (     0         -1          0      )    f =(  0.5000000 )
                  (    -1          0          0      )       (  0.5000000 )
                  (     0          0         -1      )       (  0.0000000 )

 cart.    s( 6) = (  0.0000000 -1.0000000  0.0000000 )    f =(  0.5000000 )
                  ( -1.0000000  0.0000000  0.0000000 )       (  0.5000000 )
                  (  0.0000000  0.0000000 -1.0000000 )       (  0.0000000 )


      isym =  7      90 deg rotation - cart. axis [0,0,-1]       

 cryst.   s( 7) = (     0         -1          0      )    f =(  0.0000000 )
                  (     1          0          0      )       (  0.5000000 )
                  (     0          0          1      )       (  0.0000000 )

 cart.    s( 7) = (  0.0000000  1.0000000  0.0000000 )    f =(  0.0000000 )
                  ( -1.0000000  0.0000000  0.0000000 )       (  0.5000000 )
                  (  0.0000000  0.0000000  1.0000000 )       (  0.0000000 )


      isym =  8      90 deg rotation - cart. axis [0,0,1]        

 cryst.   s( 8) = (     0          1          0      )    f =(  0.5000000 )
                  (    -1          0          0      )       (  0.0000000 )
                  (     0          0          1      )       (  0.0000000 )

 cart.    s( 8) = (  0.0000000 -1.0000000  0.0000000 )    f =(  0.5000000 )
                  (  1.0000000  0.0000000  0.0000000 )       (  0.0000000 )
                  (  0.0000000  0.0000000  1.0000000 )       (  0.0000000 )


      isym =  9     inversion                                    

 cryst.   s( 9) = (    -1          0          0      )    f =(  0.5000000 )
                  (     0         -1          0      )       (  0.5000000 )
                  (     0          0         -1      )       (  0.0000000 )

 cart.    s( 9) = ( -1.0000000  0.0000000  0.0000000 )    f =(  0.5000000 )
                  (  0.0000000 -1.0000000  0.0000000 )       (  0.5000000 )
                  (  0.0000000  0.0000000 -1.0000000 )       (  0.0000000 )


      isym = 10     inv. 180 deg rotation - cart. axis [0,0,1]   

 cryst.   s(10) = (     1          0          0      )
                  (     0          1          0      )
                  (     0          0         -1      )

 cart.    s(10) = (  1.0000000  0.0000000  0.0000000 )
                  (  0.0000000  1.0000000  0.0000000 )
                  (  0.0000000  0.0000000 -1.0000000 )


      isym = 11     inv. 180 deg rotation - cart. axis [0,1,0]   

 cryst.   s(11) = (     1          0          0      )    f =(  0.0000000 )
                  (     0         -1          0      )       (  0.5000000 )
                  (     0          0          1      )       (  0.0000000 )

 cart.    s(11) = (  1.0000000  0.0000000  0.0000000 )    f =(  0.0000000 )
                  (  0.0000000 -1.0000000  0.0000000 )       (  0.5000000 )
                  (  0.0000000  0.0000000  1.0000000 )       (  0.0000000 )


      isym = 12     inv. 180 deg rotation - cart. axis [1,0,0]   

 cryst.   s(12) = (    -1          0          0      )    f =(  0.5000000 )
                  (     0          1          0      )       (  0.0000000 )
                  (     0          0          1      )       (  0.0000000 )

 cart.    s(12) = ( -1.0000000  0.0000000  0.0000000 )    f =(  0.5000000 )
                  (  0.0000000  1.0000000  0.0000000 )       (  0.0000000 )
                  (  0.0000000  0.0000000  1.0000000 )       (  0.0000000 )


      isym = 13     inv. 180 deg rotation - cart. axis [1,1,0]   

 cryst.   s(13) = (     0         -1          0      )    f =(  0.5000000 )
                  (    -1          0          0      )       (  0.5000000 )
                  (     0          0          1      )       (  0.0000000 )

 cart.    s(13) = (  0.0000000 -1.0000000  0.0000000 )    f =(  0.5000000 )
                  ( -1.0000000  0.0000000  0.0000000 )       (  0.5000000 )
                  (  0.0000000  0.0000000  1.0000000 )       (  0.0000000 )


      isym = 14     inv. 180 deg rotation - cart. axis [1,-1,0]  

 cryst.   s(14) = (     0          1          0      )
                  (     1          0          0      )
                  (     0          0          1      )

 cart.    s(14) = (  0.0000000  1.0000000  0.0000000 )
                  (  1.0000000  0.0000000  0.0000000 )
                  (  0.0000000  0.0000000  1.0000000 )


      isym = 15     inv.  90 deg rotation - cart. axis [0,0,-1]  

 cryst.   s(15) = (     0          1          0      )    f =(  0.5000000 )
                  (    -1          0          0      )       (  0.0000000 )
                  (     0          0         -1      )       (  0.0000000 )

 cart.    s(15) = (  0.0000000 -1.0000000  0.0000000 )    f =(  0.5000000 )
                  (  1.0000000  0.0000000  0.0000000 )       (  0.0000000 )
                  (  0.0000000  0.0000000 -1.0000000 )       (  0.0000000 )


      isym = 16     inv.  90 deg rotation - cart. axis [0,0,1]   

 cryst.   s(16) = (     0         -1          0      )    f =(  0.0000000 )
                  (     1          0          0      )       (  0.5000000 )
                  (     0          0         -1      )       (  0.0000000 )

 cart.    s(16) = (  0.0000000  1.0000000  0.0000000 )    f =(  0.0000000 )
                  ( -1.0000000  0.0000000  0.0000000 )       (  0.5000000 )
                  (  0.0000000  0.0000000 -1.0000000 )       (  0.0000000 )


   Cartesian axes

     site n.     atom                  positions (alat units)
         1           Fe  tau(   1) = (   0.0000000   0.0000000   0.0000000  )
         2           Fe  tau(   2) = (   0.2499986   0.2499986   0.2499986  )
         3           Fe  tau(   3) = (   0.0000000   0.0000000   0.5000000  )
         4           Fe  tau(   4) = (   0.2499986   0.2499986   0.7500014  )
         5           Fe  tau(   5) = (   0.0000000   0.5000000   0.0000000  )
         6           Fe  tau(   6) = (   0.2499986   0.7500014   0.2499986  )
         7           Fe  tau(   7) = (   0.0000000   0.5000000   0.5000000  )
         8           Fe  tau(   8) = (   0.2499986   0.7500014   0.7500014  )
         9           Fe  tau(   9) = (   0.5000000   0.0000000   0.0000000  )
        10           Fe  tau(  10) = (   0.7500014   0.2499986   0.2499986  )
        11           Fe  tau(  11) = (   0.5000000   0.0000000   0.5000000  )
        12           Fe  tau(  12) = (   0.7500014   0.2499986   0.7500014  )
        13           Fe  tau(  13) = (   0.5000000   0.5000000   0.0000000  )
        14           Fe  tau(  14) = (   0.7500014   0.7500014   0.2499986  )
        15           Fe  tau(  15) = (   0.5000000   0.5000000   0.5000000  )
        16           Fe  tau(  16) = (   0.7500014   0.7500014   0.7500014  )
        17           H   tau(  17) = (   0.2499986   0.2499986   0.5000000  )

   Crystallographic axes

     site n.     atom                  positions (cryst. coord.)
         1           Fe  tau(   1) = (  0.0000000  0.0000000  0.0000000  )
         2           Fe  tau(   2) = (  0.2499986  0.2499986  0.2499986  )
         3           Fe  tau(   3) = (  0.0000000  0.0000000  0.5000000  )
         4           Fe  tau(   4) = (  0.2499986  0.2499986  0.7500014  )
         5           Fe  tau(   5) = (  0.0000000  0.5000000  0.0000000  )
         6           Fe  tau(   6) = (  0.2499986  0.7500014  0.2499986  )
         7           Fe  tau(   7) = (  0.0000000  0.5000000  0.5000000  )
         8           Fe  tau(   8) = (  0.2499986  0.7500014  0.7500014  )
         9           Fe  tau(   9) = (  0.5000000  0.0000000  0.0000000  )
        10           Fe  tau(  10) = (  0.7500014  0.2499986  0.2499986  )
        11           Fe  tau(  11) = (  0.5000000  0.0000000  0.5000000  )
        12           Fe  tau(  12) = (  0.7500014  0.2499986  0.7500014  )
        13           Fe  tau(  13) = (  0.5000000  0.5000000  0.0000000  )
        14           Fe  tau(  14) = (  0.7500014  0.7500014  0.2499986  )
        15           Fe  tau(  15) = (  0.5000000  0.5000000  0.5000000  )
        16           Fe  tau(  16) = (  0.7500014  0.7500014  0.7500014  )
        17           H   tau(  17) = (  0.2499986  0.2499986  0.5000000  )

     number of k points=    40  Marzari-Vanderbilt smearing, width (Ry)=  0.0050
                       cart. coord. in units 2pi/alat
        k(    1) = (   0.0000000   0.0000000   0.0000000), wk =   0.0029155
        k(    2) = (   0.0000000   0.0000000   0.1428571), wk =   0.0058309
        k(    3) = (   0.0000000   0.0000000   0.2857143), wk =   0.0058309
        k(    4) = (   0.0000000   0.0000000   0.4285714), wk =   0.0058309
        k(    5) = (   0.0000000   0.1428571   0.1428571), wk =   0.0233236
        k(    6) = (   0.0000000   0.1428571   0.2857143), wk =   0.0233236
        k(    7) = (   0.0000000   0.1428571   0.4285714), wk =   0.0233236
        k(    8) = (   0.0000000   0.2857143   0.2857143), wk =   0.0233236
        k(    9) = (   0.0000000   0.2857143   0.4285714), wk =   0.0233236
        k(   10) = (   0.0000000   0.4285714   0.4285714), wk =   0.0233236
        k(   11) = (   0.1428571   0.1428571   0.1428571), wk =   0.0233236
        k(   12) = (   0.1428571   0.1428571   0.2857143), wk =   0.0233236
        k(   13) = (   0.1428571   0.1428571   0.4285714), wk =   0.0233236
        k(   14) = (   0.1428571   0.2857143   0.2857143), wk =   0.0466472
        k(   15) = (   0.1428571   0.2857143   0.4285714), wk =   0.0466472
        k(   16) = (   0.1428571   0.4285714   0.4285714), wk =   0.0466472
        k(   17) = (   0.2857143   0.2857143   0.2857143), wk =   0.0233236
        k(   18) = (   0.2857143   0.2857143   0.4285714), wk =   0.0233236
        k(   19) = (   0.2857143   0.4285714   0.4285714), wk =   0.0466472
        k(   20) = (   0.4285714   0.4285714   0.4285714), wk =   0.0233236
        k(   21) = (   0.0000000   0.1428571   0.0000000), wk =   0.0116618
        k(   22) = (   0.0000000   0.2857143   0.0000000), wk =   0.0116618
        k(   23) = (   0.0000000   0.4285714   0.0000000), wk =   0.0116618
        k(   24) = (   0.1428571   0.1428571   0.0000000), wk =   0.0116618
        k(   25) = (   0.1428571   0.2857143   0.0000000), wk =   0.0233236
        k(   26) = (   0.2857143   0.0000000   0.1428571), wk =   0.0233236
        k(   27) = (   0.1428571   0.4285714   0.0000000), wk =   0.0233236
        k(   28) = (   0.4285714   0.0000000   0.1428571), wk =   0.0233236
        k(   29) = (   0.2857143   0.2857143   0.0000000), wk =   0.0116618
        k(   30) = (   0.2857143   0.4285714   0.0000000), wk =   0.0233236
        k(   31) = (   0.4285714   0.0000000   0.2857143), wk =   0.0233236
        k(   32) = (   0.4285714   0.4285714   0.0000000), wk =   0.0116618
        k(   33) = (   0.1428571   0.2857143   0.1428571), wk =   0.0466472
        k(   34) = (   0.1428571   0.4285714   0.1428571), wk =   0.0466472
        k(   35) = (   0.2857143   0.2857143   0.1428571), wk =   0.0233236
        k(   36) = (   0.2857143   0.4285714   0.1428571), wk =   0.0466472
        k(   37) = (   0.4285714   0.1428571   0.2857143), wk =   0.0466472
        k(   38) = (   0.4285714   0.4285714   0.1428571), wk =   0.0233236
        k(   39) = (   0.2857143   0.4285714   0.2857143), wk =   0.0466472
        k(   40) = (   0.4285714   0.4285714   0.2857143), wk =   0.0233236

                       cryst. coord.
        k(    1) = (   0.0000000   0.0000000   0.0000000), wk =   0.0029155
        k(    2) = (   0.0000000   0.0000000   0.1428571), wk =   0.0058309
        k(    3) = (   0.0000000   0.0000000   0.2857143), wk =   0.0058309
        k(    4) = (   0.0000000   0.0000000   0.4285714), wk =   0.0058309
        k(    5) = (   0.0000000   0.1428571   0.1428571), wk =   0.0233236
        k(    6) = (   0.0000000   0.1428571   0.2857143), wk =   0.0233236
        k(    7) = (   0.0000000   0.1428571   0.4285714), wk =   0.0233236
        k(    8) = (   0.0000000   0.2857143   0.2857143), wk =   0.0233236
        k(    9) = (   0.0000000   0.2857143   0.4285714), wk =   0.0233236
        k(   10) = (   0.0000000   0.4285714   0.4285714), wk =   0.0233236
        k(   11) = (   0.1428571   0.1428571   0.1428571), wk =   0.0233236
        k(   12) = (   0.1428571   0.1428571   0.2857143), wk =   0.0233236
        k(   13) = (   0.1428571   0.1428571   0.4285714), wk =   0.0233236
        k(   14) = (   0.1428571   0.2857143   0.2857143), wk =   0.0466472
        k(   15) = (   0.1428571   0.2857143   0.4285714), wk =   0.0466472
        k(   16) = (   0.1428571   0.4285714   0.4285714), wk =   0.0466472
        k(   17) = (   0.2857143   0.2857143   0.2857143), wk =   0.0233236
        k(   18) = (   0.2857143   0.2857143   0.4285714), wk =   0.0233236
        k(   19) = (   0.2857143   0.4285714   0.4285714), wk =   0.0466472
        k(   20) = (   0.4285714   0.4285714   0.4285714), wk =   0.0233236
        k(   21) = (   0.0000000   0.1428571   0.0000000), wk =   0.0116618
        k(   22) = (   0.0000000   0.2857143   0.0000000), wk =   0.0116618
        k(   23) = (   0.0000000   0.4285714   0.0000000), wk =   0.0116618
        k(   24) = (   0.1428571   0.1428571   0.0000000), wk =   0.0116618
        k(   25) = (   0.1428571   0.2857143   0.0000000), wk =   0.0233236
        k(   26) = (   0.2857143   0.0000000   0.1428571), wk =   0.0233236
        k(   27) = (   0.1428571   0.4285714   0.0000000), wk =   0.0233236
        k(   28) = (   0.4285714   0.0000000   0.1428571), wk =   0.0233236
        k(   29) = (   0.2857143   0.2857143   0.0000000), wk =   0.0116618
        k(   30) = (   0.2857143   0.4285714   0.0000000), wk =   0.0233236
        k(   31) = (   0.4285714   0.0000000   0.2857143), wk =   0.0233236
        k(   32) = (   0.4285714   0.4285714   0.0000000), wk =   0.0116618
        k(   33) = (   0.1428571   0.2857143   0.1428571), wk =   0.0466472
        k(   34) = (   0.1428571   0.4285714   0.1428571), wk =   0.0466472
        k(   35) = (   0.2857143   0.2857143   0.1428571), wk =   0.0233236
        k(   36) = (   0.2857143   0.4285714   0.1428571), wk =   0.0466472
        k(   37) = (   0.4285714   0.1428571   0.2857143), wk =   0.0466472
        k(   38) = (   0.4285714   0.4285714   0.1428571), wk =   0.0233236
        k(   39) = (   0.2857143   0.4285714   0.2857143), wk =   0.0466472
        k(   40) = (   0.4285714   0.4285714   0.2857143), wk =   0.0233236

     Dense  grid:   560339 G-vectors     FFT dimensions: ( 108, 108, 108)

     Smooth grid:   166101 G-vectors     FFT dimensions: (  72,  72,  72)

     Largest allocated arrays     est. size (Mb)     dimensions
        Kohn-Sham Wavefunctions         4.11 Mb     (    1739,  155)
        NL pseudopotentials             7.70 Mb     (    1739,  290)
        Each V/rho on FFT grid          3.20 Mb     (  104976,   2)
        Each G-vector array             0.36 Mb     (   46696)
        G-vector shells                 0.02 Mb     (    2148)
     Largest temporary arrays     est. size (Mb)     dimensions
        Auxiliary wavefunctions        16.45 Mb     (    1739,  620)
        Each subspace H/S matrix        1.47 Mb     (     310,  310)
        Each <psi_i|beta_j> matrix      0.69 Mb     (     290,  155)
        Arrays for rho mixing          12.81 Mb     (  104976,    8)

     Check: negative/imaginary core charge=   -0.000005    0.000000

     Initial potential from superposition of free atoms

     starting charge  256.99298, renormalised to  257.00000
     Starting wfc are  209 randomized atomic wfcs
     Checking if some PAW data can be deallocated... 
       node    0, deallocated PAW data for type:  2
       node    1, deallocated PAW data for type:  2
       node    2, deallocated PAW data for type:  2
       node    3, deallocated PAW data for type:  2
       node    4, deallocated PAW data for type:  2
       node    5, deallocated PAW data for type:  2
       node    6, deallocated PAW data for type:  2
       node    7, deallocated PAW data for type:  2
       node    8, deallocated PAW data for type:  2
       node    9, deallocated PAW data for type:  2
       node   10, deallocated PAW data for type:  2
       node   11, deallocated PAW data for type:  1

     total cpu time spent up to now is       95.1 secs

     Self-consistent Calculation

     iteration #  1     ecut=   100.00 Ry     beta=0.50
     Davidson diagonalization with overlap
     ethr =  1.00E-02,  avg # of iterations =  3.0

     negative rho (up, down):  0.000E+00 3.561E-04

     total cpu time spent up to now is      338.9 secs

     total energy              =   -5266.76373758 Ry
     Harris-Foulkes estimate   =   -5261.99036878 Ry
     estimated scf accuracy    <       9.58493723 Ry

     total magnetization       =    52.21 Bohr mag/cell
     absolute magnetization    =    53.55 Bohr mag/cell

     iteration #  2     ecut=   100.00 Ry     beta=0.50
     Davidson diagonalization with overlap
     ethr =  3.73E-03,  avg # of iterations =  1.1

     negative rho (up, down):  0.000E+00 1.182E-03

     total cpu time spent up to now is      529.5 secs

     total energy              =   -5268.87615762 Ry
     Harris-Foulkes estimate   =   -5267.02645606 Ry
     estimated scf accuracy    <       2.93108481 Ry

     total magnetization       =    47.96 Bohr mag/cell
     absolute magnetization    =    50.22 Bohr mag/cell

     iteration #  3     ecut=   100.00 Ry     beta=0.50
     Davidson diagonalization with overlap
     ethr =  1.14E-03,  avg # of iterations =  2.1

     negative rho (up, down):  0.000E+00 1.153E-03

     total cpu time spent up to now is      737.1 secs

     total energy              =   -5269.32416098 Ry
     Harris-Foulkes estimate   =   -5269.30469465 Ry
     estimated scf accuracy    <       0.29150721 Ry

     total magnetization       =    39.97 Bohr mag/cell
     absolute magnetization    =    42.95 Bohr mag/cell

     iteration #  4     ecut=   100.00 Ry     beta=0.50
     Davidson diagonalization with overlap
     ethr =  1.13E-04,  avg # of iterations =  3.3

     negative rho (up, down):  0.000E+00 9.738E-04

     total cpu time spent up to now is      989.3 secs

     total energy              =   -5269.40442305 Ry
     Harris-Foulkes estimate   =   -5269.38818999 Ry
     estimated scf accuracy    <       0.06866132 Ry

     total magnetization       =    37.94 Bohr mag/cell
     absolute magnetization    =    40.68 Bohr mag/cell

     iteration #  5     ecut=   100.00 Ry     beta=0.50
     Davidson diagonalization with overlap
     ethr =  2.67E-05,  avg # of iterations =  3.2

     negative rho (up, down):  0.000E+00 9.040E-04

     total cpu time spent up to now is     1232.7 secs

     total energy              =   -5269.42975725 Ry
     Harris-Foulkes estimate   =   -5269.42706372 Ry
     estimated scf accuracy    <       0.02072091 Ry

     total magnetization       =    36.13 Bohr mag/cell
     absolute magnetization    =    38.64 Bohr mag/cell

     iteration #  6     ecut=   100.00 Ry     beta=0.50
     Davidson diagonalization with overlap
     ethr =  8.06E-06,  avg # of iterations =  2.8

     negative rho (up, down):  0.000E+00 7.404E-04

     total cpu time spent up to now is     1450.1 secs

     total energy              =   -5269.43768800 Ry
     Harris-Foulkes estimate   =   -5269.43228100 Ry
     estimated scf accuracy    <       0.01305745 Ry

     total magnetization       =    36.15 Bohr mag/cell
     absolute magnetization    =    38.53 Bohr mag/cell

     iteration #  7     ecut=   100.00 Ry     beta=0.50
     Davidson diagonalization with overlap
     ethr =  5.08E-06,  avg # of iterations =  3.2

     negative rho (up, down):  0.000E+00 6.579E-04

     total cpu time spent up to now is     1684.6 secs

     total energy              =   -5269.43861727 Ry
     Harris-Foulkes estimate   =   -5269.44047798 Ry
     estimated scf accuracy    <       0.01747033 Ry

     total magnetization       =    36.09 Bohr mag/cell
     absolute magnetization    =    38.18 Bohr mag/cell

     iteration #  8     ecut=   100.00 Ry     beta=0.50
     Davidson diagonalization with overlap
     ethr =  5.08E-06,  avg # of iterations =  2.7

     negative rho (up, down):  0.000E+00 6.553E-04

     total cpu time spent up to now is     1912.5 secs

     total energy              =   -5269.44233295 Ry
     Harris-Foulkes estimate   =   -5269.44224056 Ry
     estimated scf accuracy    <       0.00036047 Ry

     total magnetization       =    35.29 Bohr mag/cell
     absolute magnetization    =    37.26 Bohr mag/cell

     iteration #  9     ecut=   100.00 Ry     beta=0.50
     Davidson diagonalization with overlap
     ethr =  1.40E-07,  avg # of iterations =  4.2

     negative rho (up, down):  0.000E+00 6.584E-04

     total cpu time spent up to now is     2310.9 secs

     total energy              =   -5269.44261370 Ry
     Harris-Foulkes estimate   =   -5269.44259899 Ry
     estimated scf accuracy    <       0.00033792 Ry

     total magnetization       =    35.21 Bohr mag/cell
     absolute magnetization    =    37.14 Bohr mag/cell

     iteration # 10     ecut=   100.00 Ry     beta=0.50
     Davidson diagonalization with overlap
     ethr =  1.31E-07,  avg # of iterations =  1.6

     negative rho (up, down):  0.000E+00 6.599E-04

     total cpu time spent up to now is     2509.9 secs

     total energy              =   -5269.44264362 Ry
     Harris-Foulkes estimate   =   -5269.44264387 Ry
     estimated scf accuracy    <       0.00001001 Ry

     total magnetization       =    35.19 Bohr mag/cell
     absolute magnetization    =    37.09 Bohr mag/cell

     iteration # 11     ecut=   100.00 Ry     beta=0.50
     Davidson diagonalization with overlap
     ethr =  3.90E-09,  avg # of iterations =  4.1

     negative rho (up, down):  0.000E+00 6.598E-04

     total cpu time spent up to now is     2825.6 secs

     total energy              =   -5269.44265828 Ry
     Harris-Foulkes estimate   =   -5269.44265791 Ry
     estimated scf accuracy    <       0.00000229 Ry

     total magnetization       =    35.14 Bohr mag/cell
     absolute magnetization    =    37.03 Bohr mag/cell

     iteration # 12     ecut=   100.00 Ry     beta=0.50
     Davidson diagonalization with overlap
     ethr =  8.89E-10,  avg # of iterations =  2.6

     negative rho (up, down):  0.000E+00 6.593E-04

     total cpu time spent up to now is     3050.8 secs

     total energy              =   -5269.44265896 Ry
     Harris-Foulkes estimate   =   -5269.44265880 Ry
     estimated scf accuracy    <       0.00000156 Ry

     total magnetization       =    35.15 Bohr mag/cell
     absolute magnetization    =    37.04 Bohr mag/cell

     iteration # 13     ecut=   100.00 Ry     beta=0.50
     Davidson diagonalization with overlap
     ethr =  6.08E-10,  avg # of iterations =  1.5

     negative rho (up, down):  0.000E+00 6.593E-04

     total cpu time spent up to now is     3252.0 secs

     total energy              =   -5269.44265915 Ry
     Harris-Foulkes estimate   =   -5269.44265913 Ry
     estimated scf accuracy    <       0.00000078 Ry

     total magnetization       =    35.15 Bohr mag/cell
     absolute magnetization    =    37.04 Bohr mag/cell

     iteration # 14     ecut=   100.00 Ry     beta=0.50
     Davidson diagonalization with overlap
     ethr =  3.05E-10,  avg # of iterations =  1.1

     negative rho (up, down):  0.000E+00 6.589E-04

     total cpu time spent up to now is     3442.7 secs

     total energy              =   -5269.44265923 Ry
     Harris-Foulkes estimate   =   -5269.44265920 Ry
     estimated scf accuracy    <       0.00000026 Ry

     total magnetization       =    35.15 Bohr mag/cell
     absolute magnetization    =    37.03 Bohr mag/cell

     iteration # 15     ecut=   100.00 Ry     beta=0.50
     Davidson diagonalization with overlap
     ethr =  1.00E-10,  avg # of iterations =  3.0

     negative rho (up, down):  0.000E+00 6.590E-04
 
     Magnetic moment per site:
     atom:    1    charge:   10.8982    magn:    1.7398    constr:    0.0000
     atom:    2    charge:   10.9141    magn:    1.5194    constr:    0.0000
     atom:    3    charge:   10.9026    magn:    1.7398    constr:    0.0000
     atom:    4    charge:   10.9141    magn:    1.5194    constr:    0.0000
     atom:    5    charge:   10.8982    magn:    1.7398    constr:    0.0000
     atom:    6    charge:   10.8998    magn:    1.7236    constr:    0.0000
     atom:    7    charge:   10.9026    magn:    1.7398    constr:    0.0000
     atom:    8    charge:   10.8998    magn:    1.7236    constr:    0.0000
     atom:    9    charge:   10.8982    magn:    1.7398    constr:    0.0000
     atom:   10    charge:   10.8998    magn:    1.7236    constr:    0.0000
     atom:   11    charge:   10.9026    magn:    1.7398    constr:    0.0000
     atom:   12    charge:   10.8998    magn:    1.7236    constr:    0.0000
     atom:   13    charge:   10.8982    magn:    1.7398    constr:    0.0000
     atom:   14    charge:   10.8990    magn:    1.7432    constr:    0.0000
     atom:   15    charge:   10.9026    magn:    1.7398    constr:    0.0000
     atom:   16    charge:   10.8990    magn:    1.7432    constr:    0.0000
     atom:   17    charge:    0.8889    magn:   -0.0008    constr:    0.0000

     total cpu time spent up to now is     3692.0 secs

     End of self-consistent calculation

 ------ SPIN UP ------------


          k = 0.0000 0.0000 0.0000 ( 20719 PWs)   bands (ev):

   -69.7775 -69.7432 -69.7430 -69.7375 -69.7167 -69.6960 -69.6959 -69.6904
   -69.6753 -69.6721 -69.6615 -69.6562 -69.6557 -69.6355 -69.5921 -69.5878
   -36.0420 -35.9844 -35.9844 -35.9610 -35.9594 -35.9594 -35.8711 -35.8711
   -35.8647 -35.8421 -35.8247 -35.8063 -35.8063 -35.7988 -35.7877 -35.7810
   -35.7771 -35.7340 -35.7336 -35.7335 -35.7295 -35.7275 -35.7262 -35.7262
   -35.7262 -35.7260 -35.7229 -35.7190 -35.7189 -35.7123 -35.6912 -35.6841
   -35.6786 -35.6786 -35.6713 -35.6585 -35.6585 -35.6212 -35.6212 -35.6000
   -35.5601 -35.5490 -35.5490 -35.5462 -35.5249 -35.5249 -35.5246 -35.5246
     8.6307  10.8033  13.2588  13.2588  13.3568  13.3899  13.3928  13.4253
    13.4408  13.4995  13.5929  13.5929  13.6297  13.6324  13.6349  14.8104
    14.8436  14.8436  14.9179  14.9179  14.9506  14.9552  15.0527  15.0527
    15.0714  15.0714  15.1264  15.1559  15.2747  15.2918  15.2918  15.3618
    15.3633  16.0200  16.0205  16.0205  16.3855  16.3855  16.4237  16.4552
    16.4552  16.4759  16.4759  16.4761  16.4819  16.4819  16.5057  16.5429
    17.0212  17.1545  17.1737  17.1856  17.2248  17.2333  17.2333  17.2471
    17.2792  17.2927  17.2927  17.3044  17.3116  17.3511  17.3711  17.3717
    17.4051  17.4051  17.4526  17.4570  17.4734  17.4805  17.4832  17.5280
    17.7718  18.4518  18.4689  18.4689  18.4705  18.4705  18.4776  18.5313
    18.5755  18.5788  18.7031  18.7031  18.7308  18.7308  18.7441  18.7441
    18.7586  18.7717  18.7757

     occupation numbers 
     1.0000   1.0000   1.0000   1.0000   1.0000   1.0000   1.0000   1.0000
     1.0000   1.0000   1.0000   1.0000   1.0000   1.0000   1.0000   1.0000
     1.0000   1.0000   1.0000   1.0000   1.0000   1.0000   1.0000   1.0000
     1.0000   1.0000   1.0000   1.0000   1.0000   1.0000   1.0000   1.0000
     1.0000   1.0000   1.0000   1.0000   1.0000   1.0000   1.0000   1.0000
     1.0000   1.0000   1.0000   1.0000   1.0000   1.0000   1.0000   1.0000
     1.0000   1.0000   1.0000   1.0000   1.0000   1.0000   1.0000   1.0000
     1.0000   1.0000   1.0000   1.0000   1.0000   1.0000   1.0000   1.0000
     1.0000   1.0000   1.0000   1.0000   1.0000   1.0000   1.0000   1.0000
     1.0000   1.0000   1.0000   1.0000   1.0000   1.0000   1.0000   1.0000
     1.0000   1.0000   1.0000   1.0000   1.0000   1.0000   1.0000   1.0000
     1.0000   1.0000   1.0000   1.0000   1.0000   1.0000   1.0000   1.0000
     1.0000   1.0000   1.0000   1.0000   1.0000   1.0000   1.0000   1.0000
     1.0000   1.0000   1.0000   1.0000   1.0000   1.0000   1.0000   1.0000
     1.0000   1.0000   1.0000   1.0000   1.0000   1.0000   1.0000   1.0000
     1.0000   1.0000   1.0000   1.0000   1.0000   1.0000   1.0000   1.0000
     1.0000   1.0000   1.0000   1.0000   1.0000   1.0000   1.0000   1.0000
     1.0000   0.0623   0.0268   0.0268   0.0246   0.0246   0.0167   0.0004
     0.0000   0.0000   0.0000   0.0000   0.0000   0.0000   0.0000   0.0000
     0.0000   0.0000   0.0000

          k = 0.0000 0.0000 0.1429 ( 20698 PWs)   bands (ev):

   -69.7763 -69.7432 -69.7430 -69.7374 -69.7199 -69.6961 -69.6959 -69.6904
   -69.6740 -69.6718 -69.6612 -69.6564 -69.6546 -69.6359 -69.5921 -69.5881
   -36.0362 -35.9799 -35.9799 -35.9549 -35.9529 -35.9529 -35.8691 -35.8690
   -35.8666 -35.8542 -35.8247 -35.8212 -35.8212 -35.8178 -35.7975 -35.7741
   -35.7715 -35.7715 -35.7706 -35.7492 -35.7492 -35.7273 -35.7230 -35.7227
   -35.7207 -35.7155 -35.7027 -35.7027 -35.6912 -35.6846 -35.6844 -35.6843
   -35.6683 -35.6683 -35.6574 -35.6567 -35.6567 -35.6187 -35.6187 -35.6028
   -35.5670 -35.5532 -35.5532 -35.5498 -35.5285 -35.5285 -35.5266 -35.5266
     8.6931  10.8477  13.0329  13.2890  13.2890  13.3900  13.4208  13.4665
    13.4864  13.4947  13.5669  13.6249  13.6249  13.6693  13.9638  14.7146
    14.8626  14.8626  14.8921  14.9042  14.9042  14.9611  14.9611  14.9920
    15.0011  15.0290  15.0864  15.2450  15.2450  15.2961  15.2961  15.3261
    15.7496  16.0189  16.0189  16.0489  16.2188  16.2188  16.2766  16.2766
    16.3137  16.3353  16.5117  16.5607  16.5607  16.5663  16.7079  16.7164
    16.7164  16.9430  17.1305  17.1305  17.1562  17.1767  17.2000  17.2784
    17.2785  17.3026  17.3102  17.3199  17.3507  17.3724  17.3941  17.4090
    17.4090  17.4161  17.4367  17.4412  17.4563  17.4849  17.5120  17.5219
    17.8905  17.8905  17.9251  18.1444  18.3782  18.3782  18.4459  18.5119
    18.5119  18.6071  18.6112  18.6829  18.6829  18.7136  18.7259  18.8441
    18.8441  18.8551  19.3527

     occupation numbers 
     1.0000   1.0000   1.0000   1.0000   1.0000   1.0000   1.0000   1.0000
     1.0000   1.0000   1.0000   1.0000   1.0000   1.0000   1.0000   1.0000
     1.0000   1.0000   1.0000   1.0000   1.0000   1.0000   1.0000   1.0000
     1.0000   1.0000   1.0000   1.0000   1.0000   1.0000   1.0000   1.0000
     1.0000   1.0000   1.0000   1.0000   1.0000   1.0000   1.0000   1.0000
     1.0000   1.0000   1.0000   1.0000   1.0000   1.0000   1.0000   1.0000
     1.0000   1.0000   1.0000   1.0000   1.0000   1.0000   1.0000   1.0000
     1.0000   1.0000   1.0000   1.0000   1.0000   1.0000   1.0000   1.0000
     1.0000   1.0000   1.0000   1.0000   1.0000   1.0000   1.0000   1.0000
     1.0000   1.0000   1.0000   1.0000   1.0000   1.0000   1.0000   1.0000
     1.0000   1.0000   1.0000   1.0000   1.0000   1.0000   1.0000   1.0000
     1.0000   1.0000   1.0000   1.0000   1.0000   1.0000   1.0000   1.0000
     1.0000   1.0000   1.0000   1.0000   1.0000   1.0000   1.0000   1.0000
     1.0000   1.0000   1.0000   1.0000   1.0000   1.0000   1.0000   1.0000
     1.0000   1.0000   1.0000   1.0000   1.0000   1.0000   1.0000   1.0000
     1.0000   1.0000   1.0000   1.0000   1.0000   1.0000   1.0000   1.0000
     1.0000   1.0000   1.0000   1.0000   1.0000   1.0000   1.0000   1.0000
     1.0000   1.0000   1.0000   1.0000   0.6258   0.6258   0.0812   0.0019
     0.0019   0.0000   0.0000   0.0000   0.0000   0.0000   0.0000   0.0000
     0.0000   0.0000   0.0000

          k = 0.0000 0.0000 0.2857 ( 20734 PWs)   bands (ev):

   -69.7731 -69.7431 -69.7429 -69.7374 -69.7268 -69.6961 -69.6960 -69.6905
   -69.6725 -69.6707 -69.6605 -69.6572 -69.6514 -69.6372 -69.5922 -69.5886
   -36.0206 -35.9675 -35.9675 -35.9371 -35.9341 -35.9341 -35.8896 -35.8696
   -35.8696 -35.8604 -35.8435 -35.8435 -35.8368 -35.8321 -35.8246 -35.8163
   -35.8163 -35.7732 -35.7732 -35.7658 -35.7543 -35.7272 -35.7238 -35.7230
   -35.7138 -35.6929 -35.6913 -35.6812 -35.6812 -35.6777 -35.6650 -35.6650
   -35.6450 -35.6450 -35.6404 -35.6404 -35.6301 -35.6117 -35.6117 -35.6105
   -35.5868 -35.5655 -35.5655 -35.5602 -35.5371 -35.5371 -35.5327 -35.5327
     8.8495  10.9565  12.4126  13.3694  13.3694  13.4772  13.5065  13.6204
    13.6540  13.6781  13.6799  13.6800  13.6866  13.7286  14.0318  14.4903
    14.4938  14.7484  14.8355  14.8355  14.8825  14.8825  14.9523  15.0515
    15.0515  15.1347  15.1364  15.2785  15.2785  15.3299  15.5914  15.5914
    15.9024  15.9024  15.9740  15.9824  16.0210  16.0210  16.1363  16.1397
    16.1413  16.1413  16.1564  16.5622  16.5622  16.6027  16.6933  16.7095
    16.7451  16.7451  16.7653  17.0291  17.0291  17.0590  17.1681  17.1681
    17.1918  17.2130  17.2130  17.2254  17.2733  17.3336  17.3546  17.3740
    17.4069  17.4370  17.4546  17.4899  17.5150  17.6694  17.7339  17.7339
    17.7443  17.7537  17.7642  18.1276  18.1276  18.3528  18.3932  18.5503
    18.5503  18.5809  18.5911  18.5997  18.5997  18.6861  18.7274  18.8979
    18.8979  18.9298  20.5876

     occupation numbers 
     1.0000   1.0000   1.0000   1.0000   1.0000   1.0000   1.0000   1.0000
     1.0000   1.0000   1.0000   1.0000   1.0000   1.0000   1.0000   1.0000
     1.0000   1.0000   1.0000   1.0000   1.0000   1.0000   1.0000   1.0000
     1.0000   1.0000   1.0000   1.0000   1.0000   1.0000   1.0000   1.0000
     1.0000   1.0000   1.0000   1.0000   1.0000   1.0000   1.0000   1.0000
     1.0000   1.0000   1.0000   1.0000   1.0000   1.0000   1.0000   1.0000
     1.0000   1.0000   1.0000   1.0000   1.0000   1.0000   1.0000   1.0000
     1.0000   1.0000   1.0000   1.0000   1.0000   1.0000   1.0000   1.0000
     1.0000   1.0000   1.0000   1.0000   1.0000   1.0000   1.0000   1.0000
     1.0000   1.0000   1.0000   1.0000   1.0000   1.0000   1.0000   1.0000
     1.0000   1.0000   1.0000   1.0000   1.0000   1.0000   1.0000   1.0000
     1.0000   1.0000   1.0000   1.0000   1.0000   1.0000   1.0000   1.0000
     1.0000   1.0000   1.0000   1.0000   1.0000   1.0000   1.0000   1.0000
     1.0000   1.0000   1.0000   1.0000   1.0000   1.0000   1.0000   1.0000
     1.0000   1.0000   1.0000   1.0000   1.0000   1.0000   1.0000   1.0000
     1.0000   1.0000   1.0000   1.0000   1.0000   1.0000   1.0000   1.0000
     1.0000   1.0000   1.0000   1.0000   1.0000   1.0000   1.0000   1.0000
     1.0000   1.0000   1.0000   1.0000   1.0000   0.8837   0.4613   0.0001
     0.0001   0.0000   0.0000   0.0000   0.0000   0.0000   0.0000   0.0000
     0.0000   0.0000   0.0000

          k = 0.0000 0.0000 0.4286 ( 20722 PWs)   bands (ev):

   -69.7700 -69.7430 -69.7429 -69.7373 -69.7325 -69.6962 -69.6960 -69.6905
   -69.6719 -69.6700 -69.6594 -69.6582 -69.6478 -69.6391 -69.5923 -69.5891
   -36.0027 -35.9525 -35.9525 -35.9164 -35.9109 -35.9070 -35.9070 -35.8851
   -35.8851 -35.8687 -35.8635 -35.8635 -35.8575 -35.8496 -35.8377 -35.8376
   -35.8246 -35.7919 -35.7919 -35.7550 -35.7395 -35.7346 -35.7271 -35.7231
   -35.7220 -35.6914 -35.6717 -35.6717 -35.6650 -35.6628 -35.6628 -35.6542
   -35.6210 -35.6195 -35.6195 -35.6164 -35.6163 -35.6155 -35.6053 -35.6053
   -35.6035 -35.5845 -35.5845 -35.5765 -35.5462 -35.5462 -35.5389 -35.5389
     8.9973  11.0590  11.9879  13.4593  13.4593  13.5979  13.6219  13.6877
    13.6877  13.7142  13.7390  13.8415  13.8764  13.9853  13.9991  14.1418
    14.2383  14.3794  14.8249  14.8249  14.8528  14.8528  14.8896  15.2531
    15.2531  15.3531  15.3536  15.4959  15.4959  15.5435  15.5844  15.5844
    15.6400  15.6437  15.7189  15.9643  15.9643  16.0013  16.0013  16.0016
    16.0347  16.0347  16.0744  16.0744  16.2706  16.4730  16.5221  16.5407
    16.5407  16.8282  16.9172  16.9384  16.9384  16.9785  17.0974  17.0998
    17.0998  17.1507  17.2537  17.3596  17.3664  17.3754  17.4009  17.4009
    17.4142  17.4217  17.4532  17.4975  17.5065  17.5118  17.7808  17.7808
    17.9961  18.0585  18.0585  18.0788  18.0846  18.2086  18.3397  18.3397
    18.3673  18.3746  18.5011  18.7204  18.7204  18.7958  18.8175  18.8491
    18.8491  18.8978  21.7449

     occupation numbers 
     1.0000   1.0000   1.0000   1.0000   1.0000   1.0000   1.0000   1.0000
     1.0000   1.0000   1.0000   1.0000   1.0000   1.0000   1.0000   1.0000
     1.0000   1.0000   1.0000   1.0000   1.0000   1.0000   1.0000   1.0000
     1.0000   1.0000   1.0000   1.0000   1.0000   1.0000   1.0000   1.0000
     1.0000   1.0000   1.0000   1.0000   1.0000   1.0000   1.0000   1.0000
     1.0000   1.0000   1.0000   1.0000   1.0000   1.0000   1.0000   1.0000
     1.0000   1.0000   1.0000   1.0000   1.0000   1.0000   1.0000   1.0000
     1.0000   1.0000   1.0000   1.0000   1.0000   1.0000   1.0000   1.0000
     1.0000   1.0000   1.0000   1.0000   1.0000   1.0000   1.0000   1.0000
     1.0000   1.0000   1.0000   1.0000   1.0000   1.0000   1.0000   1.0000
     1.0000   1.0000   1.0000   1.0000   1.0000   1.0000   1.0000   1.0000
     1.0000   1.0000   1.0000   1.0000   1.0000   1.0000   1.0000   1.0000
     1.0000   1.0000   1.0000   1.0000   1.0000   1.0000   1.0000   1.0000
     1.0000   1.0000   1.0000   1.0000   1.0000   1.0000   1.0000   1.0000
     1.0000   1.0000   1.0000   1.0000   1.0000   1.0000   1.0000   1.0000
     1.0000   1.0000   1.0000   1.0000   1.0000   1.0000   1.0000   1.0000
     1.0000   1.0000   1.0000   1.0000   1.0000   1.0000   1.0000   1.0000
     1.0000   1.0000   1.0000   1.0000   1.0000   1.0035   0.9806   0.9806
     0.7435   0.6652   0.0040   0.0000   0.0000   0.0000   0.0000   0.0000
     0.0000   0.0000   0.0000

          k = 0.0000 0.1429 0.1429 ( 20718 PWs)   bands (ev):

   -69.7748 -69.7448 -69.7428 -69.7377 -69.7193 -69.6986 -69.6957 -69.6907
   -69.6740 -69.6709 -69.6591 -69.6563 -69.6547 -69.6364 -69.5921 -69.5883
   -36.0314 -35.9756 -35.9738 -35.9533 -35.9480 -35.9426 -35.8780 -35.8670
   -35.8659 -35.8553 -35.8397 -35.8349 -35.8237 -35.8222 -35.8137 -35.7889
   -35.7792 -35.7699 -35.7594 -35.7501 -35.7436 -35.7331 -35.7261 -35.7252
   -35.7202 -35.7166 -35.7027 -35.6950 -35.6906 -35.6894 -35.6825 -35.6670
   -35.6637 -35.6571 -35.6491 -35.6478 -35.6419 -35.6182 -35.6166 -35.6066
   -35.5748 -35.5565 -35.5544 -35.5540 -35.5315 -35.5303 -35.5288 -35.5282
     8.7397  10.8802  12.9961  13.1383  13.3112  13.3609  13.4591  13.4869
    13.4976  13.5308  13.5392  13.6358  13.6707  13.9359  14.0326  14.6599
    14.7825  14.8021  14.8871  14.9217  14.9304  14.9489  14.9627  14.9862
    14.9985  15.0408  15.0856  15.1642  15.2201  15.2912  15.3184  15.5937
    15.6587  15.9599  16.0144  16.0737  16.0983  16.1439  16.1669  16.2177
    16.4084  16.4185  16.5047  16.5224  16.5431  16.5641  16.6127  16.7366
    16.7487  16.9118  17.0537  17.0822  17.1054  17.1264  17.1421  17.1435
    17.1992  17.2111  17.2314  17.2842  17.2991  17.3041  17.3309  17.3820
    17.4309  17.4446  17.4505  17.5179  17.5211  17.5304  17.6769  17.6832
    17.7573  17.9629  17.9910  18.0296  18.0497  18.0615  18.0659  18.2213
    18.2875  18.4873  18.5686  18.5830  18.6099  18.7354  19.1529  19.4523
    19.5075  19.5939  19.6030

     occupation numbers 
     1.0000   1.0000   1.0000   1.0000   1.0000   1.0000   1.0000   1.0000
     1.0000   1.0000   1.0000   1.0000   1.0000   1.0000   1.0000   1.0000
     1.0000   1.0000   1.0000   1.0000   1.0000   1.0000   1.0000   1.0000
     1.0000   1.0000   1.0000   1.0000   1.0000   1.0000   1.0000   1.0000
     1.0000   1.0000   1.0000   1.0000   1.0000   1.0000   1.0000   1.0000
     1.0000   1.0000   1.0000   1.0000   1.0000   1.0000   1.0000   1.0000
     1.0000   1.0000   1.0000   1.0000   1.0000   1.0000   1.0000   1.0000
     1.0000   1.0000   1.0000   1.0000   1.0000   1.0000   1.0000   1.0000
     1.0000   1.0000   1.0000   1.0000   1.0000   1.0000   1.0000   1.0000
     1.0000   1.0000   1.0000   1.0000   1.0000   1.0000   1.0000   1.0000
     1.0000   1.0000   1.0000   1.0000   1.0000   1.0000   1.0000   1.0000
     1.0000   1.0000   1.0000   1.0000   1.0000   1.0000   1.0000   1.0000
     1.0000   1.0000   1.0000   1.0000   1.0000   1.0000   1.0000   1.0000
     1.0000   1.0000   1.0000   1.0000   1.0000   1.0000   1.0000   1.0000
     1.0000   1.0000   1.0000   1.0000   1.0000   1.0000   1.0000   1.0000
     1.0000   1.0000   1.0000   1.0000   1.0000   1.0000   1.0000   1.0000
     1.0000   1.0000   1.0000   1.0000   1.0000   1.0000   1.0000   1.0000
     1.0000   1.0000   1.0000   1.0000   1.0000   1.0000   1.0000   1.0070
     1.0736   0.0095   0.0000   0.0000   0.0000   0.0000   0.0000   0.0000
     0.0000   0.0000   0.0000

          k = 0.0000 0.1429 0.2857 ( 20740 PWs)   bands (ev):

   -69.7718 -69.7446 -69.7427 -69.7377 -69.7259 -69.6988 -69.6958 -69.6908
   -69.6723 -69.6700 -69.6587 -69.6567 -69.6517 -69.6378 -69.5923 -69.5888
   -36.0172 -35.9648 -35.9622 -35.9402 -35.9303 -35.9202 -35.8926 -35.8818
   -35.8682 -35.8640 -35.8479 -35.8465 -35.8459 -35.8352 -35.8327 -35.8111
   -35.7970 -35.7791 -35.7623 -35.7616 -35.7528 -35.7336 -35.7277 -35.7255
   -35.7181 -35.7082 -35.7012 -35.6846 -35.6786 -35.6748 -35.6739 -35.6518
   -35.6417 -35.6403 -35.6354 -35.6351 -35.6166 -35.6118 -35.6115 -35.6082
   -35.5985 -35.5680 -35.5629 -35.5624 -35.5389 -35.5360 -35.5340 -35.5316
     8.8890  11.0077  12.4450  13.1889  13.3158  13.4428  13.5636  13.6042
    13.6628  13.6989  13.7086  13.7405  13.7482  13.9949  14.0877  14.4757
    14.5214  14.6844  14.7573  14.9071  14.9158  14.9248  14.9456  15.0361
    15.0501  15.1124  15.1316  15.1941  15.2380  15.5040  15.5269  15.5292
    15.7840  15.8951  15.9154  15.9166  15.9664  15.9769  16.0005  16.0457
    16.1685  16.2692  16.3634  16.4289  16.5068  16.6776  16.7412  16.7450
    16.7568  16.7917  16.8096  16.8345  16.8387  16.8879  17.0053  17.0763
    17.0987  17.1774  17.2189  17.2473  17.3169  17.3182  17.3322  17.4002
    17.4213  17.4364  17.4736  17.5174  17.6124  17.6526  17.6609  17.7478
    17.7493  17.8096  17.9206  17.9413  17.9852  17.9953  18.0385  18.1117
    18.1402  18.3895  18.4549  18.6751  18.7326  18.7347  19.2670  19.4828
    19.6427  19.9607  20.5260

     occupation numbers 
     1.0000   1.0000   1.0000   1.0000   1.0000   1.0000   1.0000   1.0000
     1.0000   1.0000   1.0000   1.0000   1.0000   1.0000   1.0000   1.0000
     1.0000   1.0000   1.0000   1.0000   1.0000   1.0000   1.0000   1.0000
     1.0000   1.0000   1.0000   1.0000   1.0000   1.0000   1.0000   1.0000
     1.0000   1.0000   1.0000   1.0000   1.0000   1.0000   1.0000   1.0000
     1.0000   1.0000   1.0000   1.0000   1.0000   1.0000   1.0000   1.0000
     1.0000   1.0000   1.0000   1.0000   1.0000   1.0000   1.0000   1.0000
     1.0000   1.0000   1.0000   1.0000   1.0000   1.0000   1.0000   1.0000
     1.0000   1.0000   1.0000   1.0000   1.0000   1.0000   1.0000   1.0000
     1.0000   1.0000   1.0000   1.0000   1.0000   1.0000   1.0000   1.0000
     1.0000   1.0000   1.0000   1.0000   1.0000   1.0000   1.0000   1.0000
     1.0000   1.0000   1.0000   1.0000   1.0000   1.0000   1.0000   1.0000
     1.0000   1.0000   1.0000   1.0000   1.0000   1.0000   1.0000   1.0000
     1.0000   1.0000   1.0000   1.0000   1.0000   1.0000   1.0000   1.0000
     1.0000   1.0000   1.0000   1.0000   1.0000   1.0000   1.0000   1.0000
     1.0000   1.0000   1.0000   1.0000   1.0000   1.0000   1.0000   1.0000
     1.0000   1.0000   1.0000   1.0000   1.0000   1.0000   1.0000   1.0000
     1.0000   1.0000   1.0000   1.0000   1.0000   1.0000   1.0000   1.0000
     1.0000   0.5006   0.0540   0.0000   0.0000   0.0000   0.0000   0.0000
     0.0000   0.0000   0.0000

          k = 0.0000 0.1429 0.4286 ( 20734 PWs)   bands (ev):

   -69.7689 -69.7445 -69.7427 -69.7376 -69.7313 -69.6990 -69.6959 -69.6908
   -69.6717 -69.6693 -69.6583 -69.6572 -69.6482 -69.6397 -69.5924 -69.5892
   -36.0013 -35.9523 -35.9485 -35.9231 -35.9143 -35.9052 -35.8936 -35.8843
   -35.8838 -35.8756 -35.8710 -35.8665 -35.8638 -35.8423 -35.8362 -35.8241
   -35.8176 -35.7899 -35.7790 -35.7565 -35.7406 -35.7379 -35.7328 -35.7287
   -35.7241 -35.7014 -35.6814 -35.6730 -35.6667 -35.6664 -35.6629 -35.6528
   -35.6366 -35.6288 -35.6233 -35.6167 -35.6145 -35.6124 -35.6058 -35.5981
   -35.5914 -35.5854 -35.5776 -35.5729 -35.5465 -35.5428 -35.5391 -35.5354
     9.0282  11.1427  12.0097  13.2817  13.3268  13.5339  13.6863  13.7590
    13.7663  13.7979  13.8692  13.9203  13.9566  14.0228  14.0283  14.1680
    14.2644  14.3944  14.7726  14.8589  14.8643  14.8790  14.9318  15.2146
    15.2159  15.2951  15.3044  15.3357  15.4476  15.4542  15.5212  15.6624
    15.7317  15.7401  15.7980  15.8571  15.8821  15.8984  15.9101  15.9241
    15.9508  15.9870  16.0062  16.1206  16.3589  16.3692  16.4333  16.6275
    16.6417  16.8741  16.8828  16.9334  16.9458  16.9848  16.9995  17.1065
    17.1184  17.1900  17.1902  17.2363  17.3293  17.3459  17.3580  17.3941
    17.4065  17.4205  17.4930  17.4982  17.5237  17.5498  17.5712  17.6980
    17.8160  17.8860  17.9423  17.9471  17.9774  18.0826  18.0863  18.1276
    18.1644  18.2901  18.3441  18.5258  18.8972  18.9801  19.1842  19.2505
    19.8285  20.0535  21.5200

     occupation numbers 
     1.0000   1.0000   1.0000   1.0000   1.0000   1.0000   1.0000   1.0000
     1.0000   1.0000   1.0000   1.0000   1.0000   1.0000   1.0000   1.0000
     1.0000   1.0000   1.0000   1.0000   1.0000   1.0000   1.0000   1.0000
     1.0000   1.0000   1.0000   1.0000   1.0000   1.0000   1.0000   1.0000
     1.0000   1.0000   1.0000   1.0000   1.0000   1.0000   1.0000   1.0000
     1.0000   1.0000   1.0000   1.0000   1.0000   1.0000   1.0000   1.0000
     1.0000   1.0000   1.0000   1.0000   1.0000   1.0000   1.0000   1.0000
     1.0000   1.0000   1.0000   1.0000   1.0000   1.0000   1.0000   1.0000
     1.0000   1.0000   1.0000   1.0000   1.0000   1.0000   1.0000   1.0000
     1.0000   1.0000   1.0000   1.0000   1.0000   1.0000   1.0000   1.0000
     1.0000   1.0000   1.0000   1.0000   1.0000   1.0000   1.0000   1.0000
     1.0000   1.0000   1.0000   1.0000   1.0000   1.0000   1.0000   1.0000
     1.0000   1.0000   1.0000   1.0000   1.0000   1.0000   1.0000   1.0000
     1.0000   1.0000   1.0000   1.0000   1.0000   1.0000   1.0000   1.0000
     1.0000   1.0000   1.0000   1.0000   1.0000   1.0000   1.0000   1.0000
     1.0000   1.0000   1.0000   1.0000   1.0000   1.0000   1.0000   1.0000
     1.0000   1.0000   1.0000   1.0000   1.0000   1.0000   1.0000   1.0000
     1.0000   1.0000   1.0000   1.0000   1.0000   1.0000   1.0000   1.0000
     1.0002   1.0763   0.9519   0.0007   0.0000   0.0000   0.0000   0.0000
     0.0000   0.0000   0.0000

          k = 0.0000 0.2857 0.2857 ( 20748 PWs)   bands (ev):

   -69.7680 -69.7490 -69.7421 -69.7384 -69.7232 -69.7048 -69.6951 -69.6915
   -69.6721 -69.6691 -69.6562 -69.6537 -69.6524 -69.6394 -69.5923 -69.5891
   -36.0078 -35.9596 -35.9474 -35.9344 -35.9198 -35.9072 -35.8969 -35.8886
   -35.8757 -35.8690 -35.8677 -35.8644 -35.8614 -35.8391 -35.8129 -35.8119
   -35.7846 -35.7722 -35.7685 -35.7558 -35.7483 -35.7426 -35.7341 -35.7293
   -35.7289 -35.7157 -35.7094 -35.6958 -35.6854 -35.6754 -35.6642 -35.6410
   -35.6347 -35.6325 -35.6304 -35.6286 -35.6224 -35.6137 -35.6099 -35.5958
   -35.5921 -35.5753 -35.5670 -35.5618 -35.5438 -35.5369 -35.5353 -35.5299
     8.9828  11.1554  12.4292  12.7865  13.1931  13.6455  13.7505  13.7716
    13.7768  13.7956  13.8233  13.8611  13.8828  14.1041  14.1557  14.4193
    14.5784  14.5833  14.6294  14.8823  14.9578  14.9597  15.0226  15.0238
    15.0557  15.0730  15.0825  15.1236  15.4312  15.4328  15.4869  15.6092
    15.6914  15.7101  15.7722  15.7949  15.8035  15.8555  15.8707  15.9677
    16.1474  16.2760  16.3175  16.3229  16.4446  16.4588  16.4866  16.5564
    16.6903  16.7162  16.8024  16.8504  16.9263  16.9471  16.9743  17.0532
    17.1733  17.1895  17.2072  17.2339  17.2458  17.2640  17.2788  17.3055
    17.3373  17.3989  17.4040  17.4566  17.5248  17.5828  17.6084  17.6374
    17.7397  17.7580  17.7671  17.7743  17.7791  17.7963  17.8178  18.1466
    18.2185  18.2220  18.5252  18.6956  19.0254  19.0601  19.9526  20.2531
    20.2558  20.2890  20.7698

     occupation numbers 
     1.0000   1.0000   1.0000   1.0000   1.0000   1.0000   1.0000   1.0000
     1.0000   1.0000   1.0000   1.0000   1.0000   1.0000   1.0000   1.0000
     1.0000   1.0000   1.0000   1.0000   1.0000   1.0000   1.0000   1.0000
     1.0000   1.0000   1.0000   1.0000   1.0000   1.0000   1.0000   1.0000
     1.0000   1.0000   1.0000   1.0000   1.0000   1.0000   1.0000   1.0000
     1.0000   1.0000   1.0000   1.0000   1.0000   1.0000   1.0000   1.0000
     1.0000   1.0000   1.0000   1.0000   1.0000   1.0000   1.0000   1.0000
     1.0000   1.0000   1.0000   1.0000   1.0000   1.0000   1.0000   1.0000
     1.0000   1.0000   1.0000   1.0000   1.0000   1.0000   1.0000   1.0000
     1.0000   1.0000   1.0000   1.0000   1.0000   1.0000   1.0000   1.0000
     1.0000   1.0000   1.0000   1.0000   1.0000   1.0000   1.0000   1.0000
     1.0000   1.0000   1.0000   1.0000   1.0000   1.0000   1.0000   1.0000
     1.0000   1.0000   1.0000   1.0000   1.0000   1.0000   1.0000   1.0000
     1.0000   1.0000   1.0000   1.0000   1.0000   1.0000   1.0000   1.0000
     1.0000   1.0000   1.0000   1.0000   1.0000   1.0000   1.0000   1.0000
     1.0000   1.0000   1.0000   1.0000   1.0000   1.0000   1.0000   1.0000
     1.0000   1.0000   1.0000   1.0000   1.0000   1.0000   1.0000   1.0000
     1.0000   1.0000   1.0000   1.0000   1.0000   1.0000   1.0000   1.0000
     1.0060   1.0073   0.0007   0.0000   0.0000   0.0000   0.0000   0.0000
     0.0000   0.0000   0.0000

          k = 0.0000 0.2857 0.4286 ( 20746 PWs)   bands (ev):

   -69.7656 -69.7486 -69.7420 -69.7383 -69.7278 -69.7055 -69.6952 -69.6916
   -69.6712 -69.6684 -69.6563 -69.6535 -69.6495 -69.6413 -69.5924 -69.5893
   -35.9971 -35.9535 -35.9375 -35.9277 -35.9141 -35.9010 -35.8948 -35.8872
   -35.8847 -35.8838 -35.8803 -35.8728 -35.8521 -35.8319 -35.8230 -35.8104
   -35.7918 -35.7844 -35.7582 -35.7567 -35.7471 -35.7457 -35.7429 -35.7402
   -35.7300 -35.7187 -35.7041 -35.6886 -35.6790 -35.6748 -35.6635 -35.6558
   -35.6487 -35.6368 -35.6287 -35.6134 -35.6108 -35.6083 -35.6047 -35.5888
   -35.5875 -35.5776 -35.5693 -35.5647 -35.5475 -35.5394 -35.5366 -35.5289
     9.1009  11.3817  12.0635  12.8486  13.0768  13.7396  13.8870  13.9101
    13.9363  13.9502  13.9739  14.0601  14.0799  14.0888  14.1054  14.2559
    14.3580  14.4206  14.6709  14.9172  14.9225  14.9492  14.9584  15.0285
    15.1135  15.1319  15.1614  15.2402  15.2637  15.4413  15.5518  15.6424
    15.6565  15.6848  15.7235  15.7343  15.7447  15.7906  15.8360  15.8619
    15.8858  15.9285  15.9815  16.0078  16.0814  16.0910  16.6873  16.8018
    16.8260  16.8732  16.8981  16.9370  16.9437  16.9759  16.9953  17.0108
    17.1040  17.1417  17.1686  17.1857  17.1934  17.2001  17.3015  17.3132
    17.3375  17.3647  17.4332  17.4495  17.4810  17.4850  17.5408  17.5546
    17.5630  17.5821  17.6356  17.7699  17.8100  17.8152  17.8285  17.8635
    18.3922  18.4585  18.5060  18.6251  19.3540  19.4713  19.7871  19.8959
    20.9755  21.1187  21.1857

     occupation numbers 
     1.0000   1.0000   1.0000   1.0000   1.0000   1.0000   1.0000   1.0000
     1.0000   1.0000   1.0000   1.0000   1.0000   1.0000   1.0000   1.0000
     1.0000   1.0000   1.0000   1.0000   1.0000   1.0000   1.0000   1.0000
     1.0000   1.0000   1.0000   1.0000   1.0000   1.0000   1.0000   1.0000
     1.0000   1.0000   1.0000   1.0000   1.0000   1.0000   1.0000   1.0000
     1.0000   1.0000   1.0000   1.0000   1.0000   1.0000   1.0000   1.0000
     1.0000   1.0000   1.0000   1.0000   1.0000   1.0000   1.0000   1.0000
     1.0000   1.0000   1.0000   1.0000   1.0000   1.0000   1.0000   1.0000
     1.0000   1.0000   1.0000   1.0000   1.0000   1.0000   1.0000   1.0000
     1.0000   1.0000   1.0000   1.0000   1.0000   1.0000   1.0000   1.0000
     1.0000   1.0000   1.0000   1.0000   1.0000   1.0000   1.0000   1.0000
     1.0000   1.0000   1.0000   1.0000   1.0000   1.0000   1.0000   1.0000
     1.0000   1.0000   1.0000   1.0000   1.0000   1.0000   1.0000   1.0000
     1.0000   1.0000   1.0000   1.0000   1.0000   1.0000   1.0000   1.0000
     1.0000   1.0000   1.0000   1.0000   1.0000   1.0000   1.0000   1.0000
     1.0000   1.0000   1.0000   1.0000   1.0000   1.0000   1.0000   1.0000
     1.0000   1.0000   1.0000   1.0000   1.0000   1.0000   1.0000   1.0000
     1.0000   1.0000   1.0000   1.0000   1.0000   1.0000   1.0000   1.0000
     0.4720   0.0454   0.0029   0.0000   0.0000   0.0000   0.0000   0.0000
     0.0000   0.0000   0.0000

          k = 0.0000 0.4286 0.4286 ( 20778 PWs)   bands (ev):

   -69.7608 -69.7540 -69.7411 -69.7392 -69.7229 -69.7124 -69.6943 -69.6924
   -69.6709 -69.6680 -69.6539 -69.6514 -69.6494 -69.6438 -69.5925 -69.5895
   -35.9921 -35.9570 -35.9280 -35.9231 -35.9100 -35.9037 -35.9004 -35.8968
   -35.8914 -35.8884 -35.8838 -35.8730 -35.8268 -35.8229 -35.8163 -35.7791
   -35.7770 -35.7750 -35.7655 -35.7595 -35.7574 -35.7488 -35.7469 -35.7455
   -35.7368 -35.7354 -35.7025 -35.7006 -35.6961 -35.6865 -35.6852 -35.6696
   -35.6473 -35.6288 -35.6248 -35.6162 -35.6052 -35.6049 -35.6020 -35.5940
   -35.5829 -35.5698 -35.5651 -35.5581 -35.5484 -35.5396 -35.5326 -35.5246
     9.1628  11.7177  12.0978  12.4144  12.9090  13.9805  13.9910  14.0297
    14.0913  14.1008  14.1409  14.1553  14.1746  14.1890  14.2607  14.3323
    14.3729  14.4969  14.6035  14.7941  14.8937  14.9451  14.9702  14.9906
    15.0005  15.0128  15.0210  15.0379  15.3203  15.4694  15.4830  15.5106
    15.5197  15.5643  15.5877  15.6508  15.6853  15.6937  15.7042  15.7132
    15.8265  15.8670  15.8723  15.9421  16.0391  16.3912  16.4287  16.7881
    16.8860  16.9066  16.9724  16.9781  17.0124  17.0187  17.0395  17.0909
    17.0977  17.1057  17.1572  17.1863  17.2076  17.2099  17.2367  17.2456
    17.2571  17.2691  17.2876  17.2976  17.3213  17.3670  17.3749  17.5399
    17.5662  17.6068  17.6276  17.6444  17.6798  17.6873  17.7032  17.7403
    18.5528  18.5617  18.5867  18.6422  19.8574  20.0232  20.3638  20.5763
    20.5837  20.6063  21.1870

     occupation numbers 
     1.0000   1.0000   1.0000   1.0000   1.0000   1.0000   1.0000   1.0000
     1.0000   1.0000   1.0000   1.0000   1.0000   1.0000   1.0000   1.0000
     1.0000   1.0000   1.0000   1.0000   1.0000   1.0000   1.0000   1.0000
     1.0000   1.0000   1.0000   1.0000   1.0000   1.0000   1.0000   1.0000
     1.0000   1.0000   1.0000   1.0000   1.0000   1.0000   1.0000   1.0000
     1.0000   1.0000   1.0000   1.0000   1.0000   1.0000   1.0000   1.0000
     1.0000   1.0000   1.0000   1.0000   1.0000   1.0000   1.0000   1.0000
     1.0000   1.0000   1.0000   1.0000   1.0000   1.0000   1.0000   1.0000
     1.0000   1.0000   1.0000   1.0000   1.0000   1.0000   1.0000   1.0000
     1.0000   1.0000   1.0000   1.0000   1.0000   1.0000   1.0000   1.0000
     1.0000   1.0000   1.0000   1.0000   1.0000   1.0000   1.0000   1.0000
     1.0000   1.0000   1.0000   1.0000   1.0000   1.0000   1.0000   1.0000
     1.0000   1.0000   1.0000   1.0000   1.0000   1.0000   1.0000   1.0000
     1.0000   1.0000   1.0000   1.0000   1.0000   1.0000   1.0000   1.0000
     1.0000   1.0000   1.0000   1.0000   1.0000   1.0000   1.0000   1.0000
     1.0000   1.0000   1.0000   1.0000   1.0000   1.0000   1.0000   1.0000
     1.0000   1.0000   1.0000   1.0000   1.0000   1.0000   1.0000   1.0000
     1.0000   1.0000   1.0000   1.0000   1.0000   1.0000   1.0000   1.0000
     0.0001   0.0000   0.0000   0.0000   0.0000   0.0000   0.0000   0.0000
     0.0000   0.0000   0.0000

          k = 0.1429 0.1429 0.1429 ( 20743 PWs)   bands (ev):

   -69.7734 -69.7444 -69.7444 -69.7381 -69.7187 -69.6984 -69.6982 -69.6912
   -69.6739 -69.6696 -69.6575 -69.6562 -69.6548 -69.6369 -69.5922 -69.5886
   -36.0267 -35.9749 -35.9648 -35.9495 -35.9426 -35.9360 -35.8794 -35.8742
   -35.8730 -35.8577 -35.8383 -35.8348 -35.8306 -35.8294 -35.8188 -35.8058
   -35.7785 -35.7707 -35.7642 -35.7517 -35.7440 -35.7390 -35.7365 -35.7216
   -35.7138 -35.7109 -35.7002 -35.6943 -35.6891 -35.6782 -35.6720 -35.6709
   -35.6699 -35.6503 -35.6443 -35.6366 -35.6272 -35.6251 -35.6104 -35.6071
   -35.5833 -35.5611 -35.5576 -35.5531 -35.5354 -35.5328 -35.5308 -35.5271
     8.7830  10.9186  13.0419  13.0576  13.2455  13.3844  13.3881  13.5019
    13.5314  13.5484  13.5803  13.5968  13.8779  14.0606  14.0745  14.6393
    14.6837  14.8461  14.8782  14.8984  14.9020  14.9461  14.9534  14.9753
    15.0340  15.0437  15.0460  15.1758  15.2236  15.2809  15.4715  15.5521
    15.5743  15.9487  15.9563  16.0221  16.0370  16.0549  16.2230  16.3352
    16.3641  16.3668  16.4120  16.4701  16.4916  16.4940  16.6689  16.6926
    16.7855  16.7990  16.8004  17.0174  17.1480  17.1976  17.2048  17.2072
    17.2130  17.2390  17.2685  17.2746  17.2859  17.2902  17.3520  17.4026
    17.4139  17.4288  17.4406  17.4533  17.4597  17.5126  17.5227  17.5634
    17.7566  17.7719  17.7780  17.9543  17.9971  18.0083  18.0115  18.3121
    18.3428  18.3537  18.3971  18.3981  18.9600  19.1597  19.1790  19.4328
    19.5388  19.5814  19.9407

     occupation numbers 
     1.0000   1.0000   1.0000   1.0000   1.0000   1.0000   1.0000   1.0000
     1.0000   1.0000   1.0000   1.0000   1.0000   1.0000   1.0000   1.0000
     1.0000   1.0000   1.0000   1.0000   1.0000   1.0000   1.0000   1.0000
     1.0000   1.0000   1.0000   1.0000   1.0000   1.0000   1.0000   1.0000
     1.0000   1.0000   1.0000   1.0000   1.0000   1.0000   1.0000   1.0000
     1.0000   1.0000   1.0000   1.0000   1.0000   1.0000   1.0000   1.0000
     1.0000   1.0000   1.0000   1.0000   1.0000   1.0000   1.0000   1.0000
     1.0000   1.0000   1.0000   1.0000   1.0000   1.0000   1.0000   1.0000
     1.0000   1.0000   1.0000   1.0000   1.0000   1.0000   1.0000   1.0000
     1.0000   1.0000   1.0000   1.0000   1.0000   1.0000   1.0000   1.0000
     1.0000   1.0000   1.0000   1.0000   1.0000   1.0000   1.0000   1.0000
     1.0000   1.0000   1.0000   1.0000   1.0000   1.0000   1.0000   1.0000
     1.0000   1.0000   1.0000   1.0000   1.0000   1.0000   1.0000   1.0000
     1.0000   1.0000   1.0000   1.0000   1.0000   1.0000   1.0000   1.0000
     1.0000   1.0000   1.0000   1.0000   1.0000   1.0000   1.0000   1.0000
     1.0000   1.0000   1.0000   1.0000   1.0000   1.0000   1.0000   1.0000
     1.0000   1.0000   1.0000   1.0000   1.0000   1.0000   1.0000   1.0000
     1.0000   1.0000   1.0000   1.0000   1.0000   1.0000   1.0000   1.0783
     0.9605   0.8755   0.4205   0.4100   0.0000   0.0000   0.0000   0.0000
     0.0000   0.0000   0.0000

          k = 0.1429 0.1429 0.2857 ( 20735 PWs)   bands (ev):

   -69.7705 -69.7443 -69.7443 -69.7380 -69.7250 -69.6986 -69.6984 -69.6912
   -69.6722 -69.6690 -69.6575 -69.6561 -69.6519 -69.6383 -69.5923 -69.5889
   -36.0138 -35.9628 -35.9568 -35.9389 -35.9251 -35.9130 -35.8956 -35.8855
   -35.8698 -35.8668 -35.8566 -35.8563 -35.8420 -35.8413 -35.8188 -35.8026
   -35.7971 -35.7899 -35.7764 -35.7540 -35.7434 -35.7412 -35.7390 -35.7306
   -35.7121 -35.7119 -35.7039 -35.6843 -35.6786 -35.6696 -35.6596 -35.6580
   -35.6456 -35.6450 -35.6310 -35.6239 -35.6187 -35.6157 -35.6074 -35.6046
   -35.5993 -35.5655 -35.5653 -35.5651 -35.5388 -35.5371 -35.5331 -35.5329
     8.9256  11.0623  12.4886  13.1689  13.3300  13.3911  13.4014  13.6612
    13.6780  13.7066  13.7070  13.7665  13.9862  14.1003  14.1484  14.4929
    14.5144  14.6334  14.7998  14.8492  14.9159  14.9404  14.9818  15.0208
    15.0300  15.0564  15.1913  15.1938  15.3545  15.4013  15.4374  15.5015
    15.7672  15.7814  15.8392  15.8782  15.9222  15.9389  15.9668  16.0842
    16.1014  16.1892  16.3747  16.4843  16.4950  16.5211  16.6064  16.6668
    16.6902  16.7181  16.7905  16.8577  16.8740  17.0327  17.0804  17.0977
    17.1108  17.1464  17.1570  17.2743  17.2848  17.3116  17.3265  17.3909
    17.4053  17.4328  17.4574  17.5200  17.5336  17.5486  17.5874  17.6423
    17.6455  17.6747  17.9079  17.9672  17.9691  18.0030  18.0550  18.0723
    18.1441  18.4163  18.4211  18.4230  18.7580  18.8350  19.6493  19.8222
    19.9870  20.1958  20.4355

     occupation numbers 
     1.0000   1.0000   1.0000   1.0000   1.0000   1.0000   1.0000   1.0000
     1.0000   1.0000   1.0000   1.0000   1.0000   1.0000   1.0000   1.0000
     1.0000   1.0000   1.0000   1.0000   1.0000   1.0000   1.0000   1.0000
     1.0000   1.0000   1.0000   1.0000   1.0000   1.0000   1.0000   1.0000
     1.0000   1.0000   1.0000   1.0000   1.0000   1.0000   1.0000   1.0000
     1.0000   1.0000   1.0000   1.0000   1.0000   1.0000   1.0000   1.0000
     1.0000   1.0000   1.0000   1.0000   1.0000   1.0000   1.0000   1.0000
     1.0000   1.0000   1.0000   1.0000   1.0000   1.0000   1.0000   1.0000
     1.0000   1.0000   1.0000   1.0000   1.0000   1.0000   1.0000   1.0000
     1.0000   1.0000   1.0000   1.0000   1.0000   1.0000   1.0000   1.0000
     1.0000   1.0000   1.0000   1.0000   1.0000   1.0000   1.0000   1.0000
     1.0000   1.0000   1.0000   1.0000   1.0000   1.0000   1.0000   1.0000
     1.0000   1.0000   1.0000   1.0000   1.0000   1.0000   1.0000   1.0000
     1.0000   1.0000   1.0000   1.0000   1.0000   1.0000   1.0000   1.0000
     1.0000   1.0000   1.0000   1.0000   1.0000   1.0000   1.0000   1.0000
     1.0000   1.0000   1.0000   1.0000   1.0000   1.0000   1.0000   1.0000
     1.0000   1.0000   1.0000   1.0000   1.0000   1.0000   1.0000   1.0000
     1.0000   1.0000   1.0000   1.0000   1.0000   1.0000   1.0000   1.0000
     1.0000   0.2455   0.2101   0.1968   0.0000   0.0000   0.0000   0.0000
     0.0000   0.0000   0.0000

          k = 0.1429 0.1429 0.4286 ( 20749 PWs)   bands (ev):

   -69.7677 -69.7442 -69.7441 -69.7379 -69.7301 -69.6987 -69.6985 -69.6913
   -69.6714 -69.6684 -69.6576 -69.6561 -69.6486 -69.6402 -69.5924 -69.5892
   -35.9994 -35.9485 -35.9481 -35.9229 -35.9188 -35.8953 -35.8937 -35.8869
   -35.8826 -35.8750 -35.8720 -35.8695 -35.8592 -35.8454 -35.8347 -35.8243
   -35.8030 -35.7960 -35.7709 -35.7637 -35.7508 -35.7408 -35.7370 -35.7275
   -35.7163 -35.7137 -35.6888 -35.6759 -35.6681 -35.6601 -35.6566 -35.6541
   -35.6442 -35.6317 -35.6313 -35.6205 -35.6121 -35.6112 -35.6042 -35.5907
   -35.5873 -35.5844 -35.5755 -35.5722 -35.5452 -35.5424 -35.5385 -35.5342
     9.0572  11.2267  12.0419  13.2819  13.3919  13.4181  13.4383  13.8383
    13.8422  13.9093  13.9529  14.0123  14.0288  14.0510  14.0801  14.1917
    14.2892  14.4146  14.7451  14.8523  14.8866  14.9200  14.9662  15.1709
    15.1734  15.2039  15.3165  15.3511  15.4055  15.4073  15.4625  15.7057
    15.7080  15.7422  15.7562  15.7729  15.8041  15.8279  15.8476  15.8665
    15.8776  15.9205  15.9639  16.0857  16.1848  16.2361  16.5644  16.6971
    16.7849  16.8948  16.9131  16.9315  16.9495  16.9509  16.9822  17.0157
    17.0494  17.1394  17.1812  17.2216  17.2942  17.3410  17.3467  17.3782
    17.4039  17.4072  17.4292  17.4612  17.4787  17.5554  17.6578  17.6584
    17.6989  17.7052  17.7250  17.8029  18.1708  18.1854  18.2005  18.2263
    18.2493  18.3463  18.3524  18.3586  18.5013  18.5267  19.8552  20.1262
    20.2696  20.3845  20.8915

     occupation numbers 
     1.0000   1.0000   1.0000   1.0000   1.0000   1.0000   1.0000   1.0000
     1.0000   1.0000   1.0000   1.0000   1.0000   1.0000   1.0000   1.0000
     1.0000   1.0000   1.0000   1.0000   1.0000   1.0000   1.0000   1.0000
     1.0000   1.0000   1.0000   1.0000   1.0000   1.0000   1.0000   1.0000
     1.0000   1.0000   1.0000   1.0000   1.0000   1.0000   1.0000   1.0000
     1.0000   1.0000   1.0000   1.0000   1.0000   1.0000   1.0000   1.0000
     1.0000   1.0000   1.0000   1.0000   1.0000   1.0000   1.0000   1.0000
     1.0000   1.0000   1.0000   1.0000   1.0000   1.0000   1.0000   1.0000
     1.0000   1.0000   1.0000   1.0000   1.0000   1.0000   1.0000   1.0000
     1.0000   1.0000   1.0000   1.0000   1.0000   1.0000   1.0000   1.0000
     1.0000   1.0000   1.0000   1.0000   1.0000   1.0000   1.0000   1.0000
     1.0000   1.0000   1.0000   1.0000   1.0000   1.0000   1.0000   1.0000
     1.0000   1.0000   1.0000   1.0000   1.0000   1.0000   1.0000   1.0000
     1.0000   1.0000   1.0000   1.0000   1.0000   1.0000   1.0000   1.0000
     1.0000   1.0000   1.0000   1.0000   1.0000   1.0000   1.0000   1.0000
     1.0000   1.0000   1.0000   1.0000   1.0000   1.0000   1.0000   1.0000
     1.0000   1.0000   1.0000   1.0000   1.0000   1.0000   1.0000   1.0000
     1.0000   1.0000   1.0000   1.0000   1.0003   1.0008   1.0021   1.0091
     1.0255   0.9358   0.8872   0.8313   0.0039   0.0006   0.0000   0.0000
     0.0000   0.0000   0.0000

          k = 0.1429 0.2857 0.2857 ( 20760 PWs)   bands (ev):

   -69.7669 -69.7485 -69.7434 -69.7389 -69.7223 -69.7043 -69.6975 -69.6923
   -69.6719 -69.6676 -69.6560 -69.6529 -69.6525 -69.6399 -69.5923 -69.5892
   -36.0043 -35.9573 -35.9445 -35.9308 -35.9159 -35.9065 -35.8930 -35.8902
   -35.8763 -35.8725 -35.8685 -35.8636 -35.8535 -35.8460 -35.8100 -35.8053
   -35.7974 -35.7793 -35.7732 -35.7701 -35.7601 -35.7520 -35.7420 -35.7284
   -35.7240 -35.7117 -35.6913 -35.6865 -35.6735 -35.6691 -35.6626 -35.6462
   -35.6414 -35.6383 -35.6329 -35.6300 -35.6250 -35.6108 -35.6063 -35.5925
   -35.5882 -35.5736 -35.5695 -35.5635 -35.5432 -35.5371 -35.5358 -35.5315
     9.0119  11.2212  12.5083  12.8145  13.2565  13.4494  13.6210  13.7421
    13.8181  13.8300  13.8683  13.8998  14.0950  14.2182  14.2334  14.4462
    14.5394  14.6102  14.6802  14.8034  14.9017  14.9673  15.0044  15.0501
    15.0944  15.1005  15.1152  15.2477  15.2822  15.3746  15.4364  15.5449
    15.6068  15.6625  15.7313  15.7549  15.7751  15.7938  15.8811  15.9108
    15.9921  16.0504  16.2318  16.2569  16.2936  16.3179  16.4038  16.5801
    16.6867  16.7366  16.7913  16.9679  17.0206  17.0588  17.0629  17.0783
    17.1620  17.1894  17.2260  17.2343  17.2738  17.2846  17.3060  17.3208
    17.3430  17.3479  17.3951  17.4185  17.4454  17.4928  17.5039  17.5357
    17.6100  17.6199  17.6557  17.9552  17.9923  18.0358  18.0493  18.1743
    18.1773  18.3146  18.4210  18.4332  18.5206  19.4401  19.5457  20.0732
    20.7342  21.1356  21.1634

     occupation numbers 
     1.0000   1.0000   1.0000   1.0000   1.0000   1.0000   1.0000   1.0000
     1.0000   1.0000   1.0000   1.0000   1.0000   1.0000   1.0000   1.0000
     1.0000   1.0000   1.0000   1.0000   1.0000   1.0000   1.0000   1.0000
     1.0000   1.0000   1.0000   1.0000   1.0000   1.0000   1.0000   1.0000
     1.0000   1.0000   1.0000   1.0000   1.0000   1.0000   1.0000   1.0000
     1.0000   1.0000   1.0000   1.0000   1.0000   1.0000   1.0000   1.0000
     1.0000   1.0000   1.0000   1.0000   1.0000   1.0000   1.0000   1.0000
     1.0000   1.0000   1.0000   1.0000   1.0000   1.0000   1.0000   1.0000
     1.0000   1.0000   1.0000   1.0000   1.0000   1.0000   1.0000   1.0000
     1.0000   1.0000   1.0000   1.0000   1.0000   1.0000   1.0000   1.0000
     1.0000   1.0000   1.0000   1.0000   1.0000   1.0000   1.0000   1.0000
     1.0000   1.0000   1.0000   1.0000   1.0000   1.0000   1.0000   1.0000
     1.0000   1.0000   1.0000   1.0000   1.0000   1.0000   1.0000   1.0000
     1.0000   1.0000   1.0000   1.0000   1.0000   1.0000   1.0000   1.0000
     1.0000   1.0000   1.0000   1.0000   1.0000   1.0000   1.0000   1.0000
     1.0000   1.0000   1.0000   1.0000   1.0000   1.0000   1.0000   1.0000
     1.0000   1.0000   1.0000   1.0000   1.0000   1.0000   1.0000   1.0000
     1.0000   1.0000   1.0000   1.0000   1.0000   1.0000   1.0000   1.0004
     1.0004   1.0750   0.2108   0.1361   0.0010   0.0000   0.0000   0.0000
     0.0000   0.0000   0.0000

          k = 0.1429 0.2857 0.4286 ( 20736 PWs)   bands (ev):

   -69.7645 -69.7481 -69.7433 -69.7389 -69.7266 -69.7049 -69.6976 -69.6924
   -69.6710 -69.6671 -69.6559 -69.6529 -69.6498 -69.6417 -69.5924 -69.5894
   -35.9942 -35.9495 -35.9371 -35.9250 -35.9143 -35.8957 -35.8920 -35.8886
   -35.8833 -35.8801 -35.8781 -35.8634 -35.8522 -35.8418 -35.8263 -35.8123
   -35.7958 -35.7840 -35.7807 -35.7656 -35.7579 -35.7547 -35.7459 -35.7353
   -35.7297 -35.7125 -35.6947 -35.6844 -35.6712 -35.6676 -35.6610 -35.6543
   -35.6449 -35.6363 -35.6328 -35.6179 -35.6126 -35.6088 -35.6008 -35.5871
   -35.5857 -35.5777 -35.5713 -35.5670 -35.5464 -35.5390 -35.5381 -35.5301
     9.1248  11.4666  12.1252  12.9197  13.1285  13.5913  13.6368  13.9744
    13.9922  14.0217  14.0650  14.1114  14.1527  14.1725  14.2139  14.2818
    14.3741  14.4526  14.6634  14.9048  14.9375  14.9491  14.9879  15.0096
    15.0833  15.1660  15.2039  15.2283  15.2601  15.4019  15.4576  15.5343
    15.6001  15.6373  15.6614  15.6845  15.6993  15.7243  15.7472  15.7870
    15.8047  15.8365  15.8567  15.8811  15.9541  15.9696  16.5552  16.8080
    16.8562  16.8848  16.9249  16.9754  16.9873  17.0086  17.0164  17.0641
    17.0761  17.0954  17.1437  17.1758  17.1931  17.2975  17.3108  17.3295
    17.3601  17.3759  17.4179  17.4358  17.4387  17.4764  17.4993  17.5640
    17.6107  17.6203  17.6891  17.7647  17.7762  17.9956  18.0483  18.0917
    18.3325  18.3601  18.4261  18.4910  18.6811  19.0800  20.2511  20.4457
    20.8533  21.0678  21.3862

     occupation numbers 
     1.0000   1.0000   1.0000   1.0000   1.0000   1.0000   1.0000   1.0000
     1.0000   1.0000   1.0000   1.0000   1.0000   1.0000   1.0000   1.0000
     1.0000   1.0000   1.0000   1.0000   1.0000   1.0000   1.0000   1.0000
     1.0000   1.0000   1.0000   1.0000   1.0000   1.0000   1.0000   1.0000
     1.0000   1.0000   1.0000   1.0000   1.0000   1.0000   1.0000   1.0000
     1.0000   1.0000   1.0000   1.0000   1.0000   1.0000   1.0000   1.0000
     1.0000   1.0000   1.0000   1.0000   1.0000   1.0000   1.0000   1.0000
     1.0000   1.0000   1.0000   1.0000   1.0000   1.0000   1.0000   1.0000
     1.0000   1.0000   1.0000   1.0000   1.0000   1.0000   1.0000   1.0000
     1.0000   1.0000   1.0000   1.0000   1.0000   1.0000   1.0000   1.0000
     1.0000   1.0000   1.0000   1.0000   1.0000   1.0000   1.0000   1.0000
     1.0000   1.0000   1.0000   1.0000   1.0000   1.0000   1.0000   1.0000
     1.0000   1.0000   1.0000   1.0000   1.0000   1.0000   1.0000   1.0000
     1.0000   1.0000   1.0000   1.0000   1.0000   1.0000   1.0000   1.0000
     1.0000   1.0000   1.0000   1.0000   1.0000   1.0000   1.0000   1.0000
     1.0000   1.0000   1.0000   1.0000   1.0000   1.0000   1.0000   1.0000
     1.0000   1.0000   1.0000   1.0000   1.0000   1.0000   1.0000   1.0000
     1.0000   1.0000   1.0000   1.0000   1.0000   1.0000   1.0000   1.0000
     1.0203   0.8167   0.1767   0.0075   0.0000   0.0000   0.0000   0.0000
     0.0000   0.0000   0.0000

          k = 0.1429 0.4286 0.4286 ( 20764 PWs)   bands (ev):

   -69.7599 -69.7533 -69.7421 -69.7400 -69.7218 -69.7117 -69.6963 -69.6938
   -69.6707 -69.6665 -69.6538 -69.6516 -69.6490 -69.6441 -69.5925 -69.5895
   -35.9881 -35.9535 -35.9243 -35.9220 -35.9063 -35.9001 -35.8974 -35.8928
   -35.8919 -35.8827 -35.8769 -35.8672 -35.8379 -35.8297 -35.8185 -35.7935
   -35.7856 -35.7802 -35.7773 -35.7752 -35.7705 -35.7655 -35.7566 -35.7547
   -35.7359 -35.7130 -35.6898 -35.6853 -35.6845 -35.6764 -35.6697 -35.6626
   -35.6447 -35.6312 -35.6233 -35.6158 -35.6095 -35.6055 -35.6010 -35.5941
   -35.5840 -35.5712 -35.5689 -35.5617 -35.5480 -35.5395 -35.5350 -35.5270
     9.1819  11.8067  12.1894  12.4979  12.9384  13.8494  13.9611  14.0257
    14.0516  14.1019  14.1603  14.1696  14.2568  14.3204  14.3434  14.3887
    14.4653  14.5236  14.6125  14.7780  14.8841  14.9347  14.9658  14.9874
    14.9998  15.0283  15.0489  15.1064  15.2971  15.3518  15.4299  15.4478
    15.4661  15.5088  15.5390  15.5564  15.5726  15.6120  15.6237  15.6426
    15.7282  15.7599  15.7734  15.8174  15.8804  16.1844  16.2081  16.5293
    16.9024  17.0092  17.0261  17.0487  17.0806  17.0925  17.1096  17.1494
    17.1706  17.1894  17.1932  17.2026  17.2385  17.2405  17.2684  17.2864
    17.3114  17.3327  17.3604  17.3692  17.4130  17.4250  17.4452  17.4723
    17.5096  17.5245  17.5704  17.6757  17.7431  17.8102  17.8167  17.8734
    18.4553  18.4629  18.4880  18.5279  19.1788  19.6574  19.7596  20.3592
    21.0086  21.5084  21.6924

     occupation numbers 
     1.0000   1.0000   1.0000   1.0000   1.0000   1.0000   1.0000   1.0000
     1.0000   1.0000   1.0000   1.0000   1.0000   1.0000   1.0000   1.0000
     1.0000   1.0000   1.0000   1.0000   1.0000   1.0000   1.0000   1.0000
     1.0000   1.0000   1.0000   1.0000   1.0000   1.0000   1.0000   1.0000
     1.0000   1.0000   1.0000   1.0000   1.0000   1.0000   1.0000   1.0000
     1.0000   1.0000   1.0000   1.0000   1.0000   1.0000   1.0000   1.0000
     1.0000   1.0000   1.0000   1.0000   1.0000   1.0000   1.0000   1.0000
     1.0000   1.0000   1.0000   1.0000   1.0000   1.0000   1.0000   1.0000
     1.0000   1.0000   1.0000   1.0000   1.0000   1.0000   1.0000   1.0000
[...]
   -33.5747 -33.4400 -33.3835 -33.3818 -33.3336 -33.3322 -33.3102 -33.2931
   -33.2798 -33.2754 -33.2716 -33.2709 -33.2465 -33.2424 -33.2403 -33.2227
   -33.2193 -33.2177 -33.1997 -33.1901 -33.1870 -33.1793 -33.1786 -33.1497
   -33.1158 -33.1002 -33.0898 -33.0890 -33.0815 -33.0686 -33.0422 -33.0228
   -33.0152 -33.0127 -33.0040 -33.0008 -32.9944 -32.9916 -32.9833 -32.9788
   -32.9717 -32.9687 -32.9611 -32.9562 -32.9540 -32.9480 -32.9323 -32.9267
     9.9201  12.2977  12.7298  13.0624  13.5164  13.9983  14.2303  14.5935
    15.0877  15.8801  15.8918  15.9542  15.9976  16.0396  16.0744  16.1168
    16.1225  16.3163  16.3203  16.4583  16.5054  16.5580  16.6006  16.6268
    16.6551  16.6851  16.7042  16.7977  16.8192  16.8581  16.9014  16.9073
    16.9705  17.0193  17.0309  17.0544  17.1510  17.1883  17.2227  17.2233
    17.2969  17.3067  17.3306  17.3361  17.4061  17.5943  17.5998  17.8772
    19.0890  19.3874  19.4740  19.5035  19.5765  19.6051  19.6406  19.6829
    19.7082  19.7446  19.7495  19.7585  19.7759  19.7927  19.8424  19.8490
    19.9088  19.9113  20.0145  20.0190  20.0465  20.1171  20.1531  20.1788
    20.1911  20.2020  20.2404  20.2522  20.2537  20.2645  20.2934  20.3125
    20.3733  20.3749  20.4545  20.4839  20.6114  20.9834  21.0409  21.5111
    23.4180  24.0612  24.3016

     occupation numbers 
     1.0000   1.0000   1.0000   1.0000   1.0000   1.0000   1.0000   1.0000
     1.0000   1.0000   1.0000   1.0000   1.0000   1.0000   1.0000   1.0000
     1.0000   1.0000   1.0000   1.0000   1.0000   1.0000   1.0000   1.0000
     1.0000   1.0000   1.0000   1.0000   1.0000   1.0000   1.0000   1.0000
     1.0000   1.0000   1.0000   1.0000   1.0000   1.0000   1.0000   1.0000
     1.0000   1.0000   1.0000   1.0000   1.0000   1.0000   1.0000   1.0000
     1.0000   1.0000   1.0000   1.0000   1.0000   1.0000   1.0000   1.0000
     1.0000   1.0000   1.0000   1.0000   1.0000   1.0000   1.0000   1.0000
     1.0000   1.0000   1.0000   1.0000   1.0000   1.0000   1.0000   1.0000
     1.0000   1.0000   1.0000   1.0000   1.0000   1.0000   1.0000   1.0000
     1.0000   1.0000   1.0000   1.0000   1.0000   1.0000   1.0000   1.0000
     1.0000   1.0000   1.0000   1.0000   1.0000   1.0000   1.0000   1.0000
     1.0000   1.0000   1.0000   1.0000   1.0000   1.0000   1.0000   1.0000
     1.0000   1.0000   1.0000   1.0000   1.0000   1.0000   1.0000   1.0000
     0.0000   0.0000   0.0000   0.0000   0.0000   0.0000   0.0000   0.0000
     0.0000   0.0000   0.0000   0.0000   0.0000   0.0000   0.0000   0.0000
     0.0000   0.0000   0.0000   0.0000   0.0000   0.0000   0.0000   0.0000
     0.0000   0.0000   0.0000   0.0000   0.0000   0.0000   0.0000   0.0000
     0.0000   0.0000   0.0000   0.0000   0.0000   0.0000   0.0000   0.0000
     0.0000   0.0000   0.0000

     the Fermi energy is    18.4132 ev

!    total energy              =   -5269.48011688 Ry
     Harris-Foulkes estimate   =   -5269.48011688 Ry
     estimated scf accuracy    <          8.3E-10 Ry

     total all-electron energy =    -40730.224681 Ry

     The total energy is the sum of the following terms:

     one-electron contribution =   -1751.62205949 Ry
     hartree contribution      =    1046.56743404 Ry
     xc contribution           =    -558.21737739 Ry
     ewald contribution        =   -2787.76003384 Ry
     one-center paw contrib.   =   -1218.44792644 Ry
     smearing contrib. (-TS)   =      -0.00015375 Ry

     total magnetization       =    34.96 Bohr mag/cell
     absolute magnetization    =    36.82 Bohr mag/cell

     convergence has been achieved in  10 iterations

     negative rho (up, down):  0.000E+00 4.260E-04

     Forces acting on atoms (Ry/au):

     atom    1 type  1   force =     0.00052785    0.00052785    0.00000000
     atom    2 type  1   force =     0.00000000    0.00000000   -0.00088646
     atom    3 type  1   force =     0.00002360    0.00002360    0.00000000
     atom    4 type  1   force =     0.00000000    0.00000000    0.00088646
     atom    5 type  1   force =     0.00052785   -0.00052785    0.00000000
     atom    6 type  1   force =     0.00000000    0.00000000    0.00000273
     atom    7 type  1   force =     0.00002360   -0.00002360    0.00000000
     atom    8 type  1   force =     0.00000000    0.00000000   -0.00000273
     atom    9 type  1   force =    -0.00052785    0.00052785    0.00000000
     atom   10 type  1   force =     0.00000000    0.00000000    0.00000273
     atom   11 type  1   force =    -0.00002360    0.00002360    0.00000000
     atom   12 type  1   force =     0.00000000    0.00000000   -0.00000273
     atom   13 type  1   force =    -0.00052785   -0.00052785    0.00000000
     atom   14 type  1   force =     0.00000000    0.00000000    0.00084420
     atom   15 type  1   force =    -0.00002360   -0.00002360    0.00000000
     atom   16 type  1   force =     0.00000000    0.00000000   -0.00084420
     atom   17 type  2   force =     0.00000000    0.00000000    0.00000000
     The non-local contrib.  to forces
     atom    1 type  1   force =     0.01445339    0.01445339    0.00000000
     atom    2 type  1   force =     0.00000000    0.00000000    0.26300035
     atom    3 type  1   force =     0.07100170    0.07100170    0.00000000
     atom    4 type  1   force =     0.00000000    0.00000000   -0.26300035
     atom    5 type  1   force =     0.01445339   -0.01445339    0.00000000
     atom    6 type  1   force =     0.00000000    0.00000000   -0.00054983
     atom    7 type  1   force =     0.07100170   -0.07100170    0.00000000
     atom    8 type  1   force =     0.00000000    0.00000000    0.00054983
     atom    9 type  1   force =    -0.01445339    0.01445339    0.00000000
     atom   10 type  1   force =     0.00000000    0.00000000   -0.00054983
     atom   11 type  1   force =    -0.07100170    0.07100170    0.00000000
     atom   12 type  1   force =     0.00000000    0.00000000    0.00054983
     atom   13 type  1   force =    -0.01445339   -0.01445339    0.00000000
     atom   14 type  1   force =     0.00000000    0.00000000   -0.01248166
     atom   15 type  1   force =    -0.07100170   -0.07100170    0.00000000
     atom   16 type  1   force =     0.00000000    0.00000000    0.01248166
     atom   17 type  2   force =     0.00000000    0.00000000    0.00000000
     The ionic contribution  to forces
     atom    1 type  1   force =    -0.84871967   -0.84871967    0.00000003
     atom    2 type  1   force =     0.00093702    0.00093702    5.88713359
     atom    3 type  1   force =     1.39738282    1.39738282   -0.00000002
     atom    4 type  1   force =     0.00093702    0.00093702   -5.88713359
     atom    5 type  1   force =    -0.84867840    0.84865502    0.00000003
     atom    6 type  1   force =     0.00094215   -0.00093402    1.95423054
     atom    7 type  1   force =     1.39735938   -1.39736501   -0.00000002
     atom    8 type  1   force =     0.00094215   -0.00093402   -1.95423055
     atom    9 type  1   force =     0.84865502   -0.84867840    0.00000003
     atom   10 type  1   force =    -0.00093402    0.00094215    1.95423054
     atom   11 type  1   force =    -1.39736501    1.39735938   -0.00000002
     atom   12 type  1   force =    -0.00093402    0.00094215   -1.95423055
     atom   13 type  1   force =     0.84861376    0.84861376    0.00000003
     atom   14 type  1   force =    -0.00093224   -0.00093224    1.64077156
     atom   15 type  1   force =    -1.39734158   -1.39734158   -0.00000002
     atom   16 type  1   force =    -0.00093224   -0.00093224   -1.64077158
     atom   17 type  2   force =     0.00006789    0.00006789    0.00000000
     The local contribution  to forces
     atom    1 type  1   force =     0.83472650    0.83472650    0.00000000
     atom    2 type  1   force =     0.00271836    0.00271836   -6.15238999
     atom    3 type  1   force =    -1.47026055   -1.47026055   -0.00000016
     atom    4 type  1   force =     0.00271836    0.00271836    6.15238966
     atom    5 type  1   force =     0.83472650   -0.83472650    0.00000000
     atom    6 type  1   force =     0.00269461   -0.00270710   -1.95324154
     atom    7 type  1   force =    -1.47026055    1.47026055   -0.00000016
     atom    8 type  1   force =     0.00269461   -0.00270710    1.95324121
     atom    9 type  1   force =    -0.83472650    0.83472650    0.00000000
     atom   10 type  1   force =    -0.00270710    0.00269461   -1.95324154
     atom   11 type  1   force =     1.47026055   -1.47026055   -0.00000016
     atom   12 type  1   force =    -0.00270710    0.00269461    1.95324121
     atom   13 type  1   force =    -0.83472650   -0.83472650    0.00000000
     atom   14 type  1   force =    -0.00270402   -0.00270402   -1.62750554
     atom   15 type  1   force =     1.47026055    1.47026055   -0.00000016
     atom   16 type  1   force =    -0.00270402   -0.00270402    1.62750521
     atom   17 type  2   force =     0.00002388    0.00002388    0.00000000
     The core correction contribution to forces
     atom    1 type  1   force =     0.00003142    0.00003142    0.00000000
     atom    2 type  1   force =    -0.00009896   -0.00009896    0.00138395
     atom    3 type  1   force =     0.00194095    0.00194095    0.00000001
     atom    4 type  1   force =    -0.00009896   -0.00009896   -0.00138394
     atom    5 type  1   force =     0.00003142   -0.00003142    0.00000000
     atom    6 type  1   force =    -0.00009871    0.00009885   -0.00037968
     atom    7 type  1   force =     0.00194095   -0.00194095    0.00000001
     atom    8 type  1   force =    -0.00009871    0.00009885    0.00037970
     atom    9 type  1   force =    -0.00003142    0.00003142    0.00000000
     atom   10 type  1   force =     0.00009885   -0.00009871   -0.00037968
     atom   11 type  1   force =    -0.00194095    0.00194095    0.00000001
     atom   12 type  1   force =     0.00009885   -0.00009871    0.00037970
     atom   13 type  1   force =    -0.00003142   -0.00003142    0.00000000
     atom   14 type  1   force =     0.00009887    0.00009887    0.00004861
     atom   15 type  1   force =    -0.00194095   -0.00194095    0.00000001
     atom   16 type  1   force =     0.00009887    0.00009887   -0.00004860
     atom   17 type  2   force =     0.00000000    0.00000000    0.00000000
     The Hubbard contrib.    to forces
     atom    1 type  1   force =     0.00000000    0.00000000    0.00000000
     atom    2 type  1   force =     0.00000000    0.00000000    0.00000000
     atom    3 type  1   force =     0.00000000    0.00000000    0.00000000
     atom    4 type  1   force =     0.00000000    0.00000000    0.00000000
     atom    5 type  1   force =     0.00000000    0.00000000    0.00000000
     atom    6 type  1   force =     0.00000000    0.00000000    0.00000000
     atom    7 type  1   force =     0.00000000    0.00000000    0.00000000
     atom    8 type  1   force =     0.00000000    0.00000000    0.00000000
     atom    9 type  1   force =     0.00000000    0.00000000    0.00000000
     atom   10 type  1   force =     0.00000000    0.00000000    0.00000000
     atom   11 type  1   force =     0.00000000    0.00000000    0.00000000
     atom   12 type  1   force =     0.00000000    0.00000000    0.00000000
     atom   13 type  1   force =     0.00000000    0.00000000    0.00000000
     atom   14 type  1   force =     0.00000000    0.00000000    0.00000000
     atom   15 type  1   force =     0.00000000    0.00000000    0.00000000
     atom   16 type  1   force =     0.00000000    0.00000000    0.00000000
     atom   17 type  2   force =     0.00000000    0.00000000    0.00000000
     The SCF correction term to forces
     atom    1 type  1   force =    -0.00001672   -0.00001672    0.00000000
     atom    2 type  1   force =     0.00000001    0.00000001   -0.00001453
     atom    3 type  1   force =    -0.00002072   -0.00002072    0.00000000
     atom    4 type  1   force =     0.00000001    0.00000001    0.00001453
     atom    5 type  1   force =    -0.00001676    0.00001672    0.00000000
     atom    6 type  1   force =     0.00000000    0.00000000   -0.00005692
     atom    7 type  1   force =    -0.00002067    0.00002071    0.00000000
     atom    8 type  1   force =     0.00000000    0.00000000    0.00005692
     atom    9 type  1   force =     0.00001672   -0.00001676    0.00000000
     atom   10 type  1   force =     0.00000000    0.00000000   -0.00005692
     atom   11 type  1   force =     0.00002071   -0.00002067    0.00000000
     atom   12 type  1   force =     0.00000000    0.00000000    0.00005692
     atom   13 type  1   force =     0.00001676    0.00001676    0.00000000
     atom   14 type  1   force =     0.00000000    0.00000000    0.00001105
     atom   15 type  1   force =     0.00002067    0.00002067    0.00000000
     atom   16 type  1   force =     0.00000000    0.00000000   -0.00001105
     atom   17 type  2   force =     0.00000000    0.00000000    0.00000000

     Total force =     0.002287     Total SCF correction =     0.000139


     entering subroutine stress ...


     negative rho (up, down):  0.000E+00 4.260E-04
          total   stress  (Ry/bohr**3)                   (kbar)     P=   40.51
   0.00017156   0.00000000   0.00000000         25.24      0.00      0.00
   0.00000000   0.00017156   0.00000000          0.00     25.24      0.00
   0.00000000   0.00000000   0.00048313          0.00      0.00     71.07

     kinetic stress (kbar)  82229.78      0.00      0.00
                                0.00  82229.78      0.00
                                0.00      0.00  82290.99

     local   stress (kbar)  71139.28      0.00      0.00
                                0.00  71139.28      0.00
                                0.00      0.00  70331.76

     nonloc. stress (kbar) -64191.62      0.00      0.00
                                0.00 -64191.62      0.00
                                0.00      0.00 -64290.05

     hartree stress (kbar)  41716.86      0.00      0.00
                                0.00  41716.86      0.00
                                0.00      0.00  41898.90

     exc-cor stress (kbar)  -2638.76      0.00      0.00
                                0.00  -2638.76      0.00
                                0.00      0.00  -2636.08

     corecor stress (kbar) -16711.36      0.00      0.00
                                0.00 -16711.36      0.00
                                0.00      0.00 -16711.63

     ewald   stress (kbar)-111518.95      0.00      0.00
                                0.00-111518.95      0.00
                                0.00      0.00-110812.82

     hubbard stress (kbar)      0.00      0.00      0.00
                                0.00      0.00      0.00
                                0.00      0.00      0.00

     london  stress (kbar)      0.00      0.00      0.00
                                0.00      0.00      0.00
                                0.00      0.00      0.00

     XDM     stress (kbar)      0.00      0.00      0.00
                                0.00      0.00      0.00
                                0.00      0.00      0.00

     dft-nl  stress (kbar)      0.00      0.00      0.00
                                0.00      0.00      0.00
                                0.00      0.00      0.00

     TS-vdW  stress (kbar)      0.00      0.00      0.00
                                0.00      0.00      0.00
                                0.00      0.00      0.00



     bfgs converged in   8 scf cycles and   7 bfgs steps
     (criteria: energy <  1.0E-04, force <  1.0E-03)

     End of BFGS Geometry Optimization

     Final energy   =   -5269.4801168778 Ry
Begin final coordinates

ATOMIC_POSITIONS (angstrom)
Fe      -0.023518751  -0.023518751   0.000000000
Fe       1.416822755   1.416822755   1.274360160
Fe       0.003548791   0.003548791   2.833661872
Fe       1.416822755   1.416822755   4.392963584
Fe      -0.023518751   2.857180623   0.000000000
Fe       1.416822755   4.250500989   1.411417929
Fe       0.003548791   2.830113081   2.833661872
Fe       1.416822755   4.250500989   4.255905815
Fe       2.857180623  -0.023518751   0.000000000
Fe       4.250500989   1.416822755   1.411417929
Fe       2.830113081   0.003548791   2.833661872
Fe       4.250500989   1.416822755   4.255905815
Fe       2.857180623   2.857180623   0.000000000
Fe       4.250500989   4.250500989   1.431649649
Fe       2.830113081   2.830113081   2.833661872
Fe       4.250500989   4.250500989   4.235674095
H        1.416822755   1.416822755   2.833661872
End final coordinates



     Writing output data file Fe_relax.save
 
     init_run     :     90.95s CPU     94.54s WALL (       1 calls)
     electrons    :  22796.84s CPU  23833.72s WALL (       8 calls)
     update_pot   :     14.10s CPU     14.59s WALL (       7 calls)
     forces       :    223.09s CPU    227.43s WALL (       8 calls)
     stress       :   1302.62s CPU   1310.77s WALL (       8 calls)

     Called by init_run:
     wfcinit      :     87.38s CPU     90.75s WALL (       1 calls)
     potinit      :      1.81s CPU      1.88s WALL (       1 calls)

     Called by electrons:
     c_bands      :  19765.16s CPU  20704.83s WALL (      95 calls)
     sum_band     :   2818.22s CPU   2899.15s WALL (      95 calls)
     v_of_rho     :     30.40s CPU     32.95s WALL (     101 calls)
     v_h          :      1.28s CPU      1.47s WALL (     101 calls)
     v_xc         :     33.71s CPU     36.47s WALL (     117 calls)
     newd         :     43.67s CPU     53.12s WALL (     101 calls)
     PAW_pot      :    147.92s CPU    151.04s WALL (     108 calls)
     mix_rho      :     12.72s CPU     14.24s WALL (      95 calls)

     Called by c_bands:
     init_us_2    :    112.63s CPU    116.63s WALL (   17120 calls)
     cegterg      :  19197.28s CPU  20129.59s WALL (    7600 calls)

     Called by sum_band:
     sum_band:bec :      6.09s CPU      6.26s WALL (    8160 calls)
     addusdens    :     89.22s CPU    100.11s WALL (      95 calls)

     Called by *egterg:
     h_psi        :  10707.49s CPU  11025.83s WALL (   26628 calls)
     s_psi        :   1231.35s CPU   1244.28s WALL (   26628 calls)
     g_psi        :     59.39s CPU     59.51s WALL (   18948 calls)
     cdiaghg      :   2960.45s CPU   3079.34s WALL (   25828 calls)
     cegterg:over :   1748.98s CPU   1795.83s WALL (   18948 calls)
     cegterg:upda :   1138.38s CPU   1209.02s WALL (   18948 calls)
     cegterg:last :    793.29s CPU    809.66s WALL (    8071 calls)
     cdiaghg:chol :    199.68s CPU    201.19s WALL (   25828 calls)
     cdiaghg:inve :     25.87s CPU     26.45s WALL (   25828 calls)
     cdiaghg:para :    752.44s CPU    836.41s WALL (   51656 calls)

     Called by h_psi:
     h_psi:vloc   :   8049.70s CPU   8316.55s WALL (   26628 calls)
     h_psi:vnl    :   2570.14s CPU   2621.36s WALL (   26628 calls)
     add_vuspsi   :   1258.78s CPU   1279.66s WALL (   26628 calls)

     General routines
     calbec       :   2096.23s CPU   2141.80s WALL (   37988 calls)
     fft          :     27.53s CPU     29.52s WALL (    3419 calls)
     ffts         :      3.69s CPU      4.03s WALL (    2175 calls)
     fftw         :   7084.34s CPU   7391.90s WALL ( 6838018 calls)
     interpolate  :      4.18s CPU      4.99s WALL (     392 calls)
     davcio       :      0.00s CPU      3.35s WALL (      80 calls)
 
     Parallel routines
     fft_scatter  :   1611.11s CPU   1688.50s WALL ( 6843612 calls)

     PAW routines
     PAW_pot      :    147.92s CPU    151.04s WALL (     108 calls)
     PAW_symme    :      0.20s CPU      0.20s WALL (     203 calls)
 
     PWSCF        :     6h48m CPU        7h 5m WALL

 
   This run was terminated on:   6:51:39  12May2016            

=------------------------------------------------------------------------------=
   JOB DONE.
=------------------------------------------------------------------------------=
