
     Program PWSCF v.6.7MaX starts on 17Jan2023 at 21:41:55 

     This program is part of the open-source Quantum ESPRESSO suite
     for quantum simulation of materials; please cite
         "P. Giannozzi et al., J. Phys.:Condens. Matter 21 395502 (2009);
         "P. Giannozzi et al., J. Phys.:Condens. Matter 29 465901 (2017);
          URL http://www.quantum-espresso.org", 
     in publications or presentations arising from this work. More details at
     http://www.quantum-espresso.org/quote

     Parallel version (MPI), running on    24 processors

     MPI processes distributed on     1 nodes
     K-points division:     npool     =       4
     R & G space division:  proc/nbgrp/npool/nimage =       6
     Reading input from 1x1x1.in
Warning: card &CELL ignored
Warning: card    CELL_DYNAMICS = 'BFGS', ignored
Warning: card    CELL_FACTOR=1.5 ignored
Warning: card    PRESS = 0.0 ignored
Warning: card / ignored

     Current dimensions of program PWSCF are:
     Max number of different atomic species (ntypx) = 10
     Max number of k-points (npk) =  40000
     Max angular momentum in pseudopotentials (lmaxx) =  3

     Subspace diagonalization in iterative solution of the eigenvalue problem:
     a serial algorithm will be used

     Message from routine setup:
     using ibrav=0 with symmetry is DISCOURAGED, use correct ibrav instead
 
     Parallelization info
     --------------------
     sticks:   dense  smooth     PW     G-vecs:    dense   smooth      PW
     Min         373     186     56                13427     4736     770
     Max         374     187     57                13432     4739     771
     Sum        2241    1117    341                80581    28425    4625
 


     bravais-lattice index     =            0
     lattice parameter (alat)  =       7.6841  a.u.
     unit-cell volume          =     453.7082 (a.u.)^3
     number of atoms/cell      =            9
     number of atomic types    =            3
     number of electrons       =        40.00
     number of Kohn-Sham states=           24
     kinetic-energy cutoff     =      60.0000  Ry
     charge density cutoff     =     480.0000  Ry
     scf convergence threshold =      1.0E-07
     mixing beta               =       0.3000
     number of iterations used =            8  plain     mixing
     Exchange-correlation= PBE
                           (   1   4   3   4   0   0   0)

     celldm(1)=   7.684086  celldm(2)=   0.000000  celldm(3)=   0.000000
     celldm(4)=   0.000000  celldm(5)=   0.000000  celldm(6)=   0.000000

     crystal axes: (cart. coord. in units of alat)
               a(1) = (   1.000000   0.000000   0.000000 )  
               a(2) = (   0.000000   1.000000   0.000000 )  
               a(3) = (   0.000000   0.000000   1.000000 )  

     reciprocal axes: (cart. coord. in units 2 pi/alat)
               b(1) = (  1.000000  0.000000  0.000000 )  
               b(2) = (  0.000000  1.000000  0.000000 )  
               b(3) = (  0.000000  0.000000  1.000000 )  


     PseudoPot. # 1 for Li read from file:
     /home/vol07/scarf497/pseudo/li_pbe_v1.4.uspp.F.UPF
     MD5 check sum: e912e257baa3777c20ea3d68f190483c
     Pseudo is Ultrasoft, Zval =  3.0
     Generated by new atomic code, or converted to UPF format
     Using radial grid of  751 points,  5 beta functions with: 
                l(1) =   0
                l(2) =   0
                l(3) =   0
                l(4) =   1
                l(5) =   1
     Q(r) pseudized with 10 coefficients,  rinner =    1.150   1.150   1.150


     PseudoPot. # 2 for F  read from file:
     /home/vol07/scarf497/pseudo/f_pbe_v1.4.uspp.F.UPF
     MD5 check sum: 4c38b6a325caf53ec0e86aed9459de46
     Pseudo is Ultrasoft, Zval =  7.0
     Generated by new atomic code, or converted to UPF format
     Using radial grid of  799 points,  4 beta functions with: 
                l(1) =   0
                l(2) =   0
                l(3) =   1
                l(4) =   1
     Q(r) pseudized with  8 coefficients,  rinner =    0.950   0.950   0.950


     PseudoPot. # 3 for H  read from file:
     /home/vol07/scarf497/pseudo/H.pbe-rrkjus_psl.1.0.0.UPF
     MD5 check sum: f52b6d4d1c606e5624b1dc7b2218f220
     Pseudo is Ultrasoft, Zval =  1.0
     Generated using "atomic" code by A. Dal Corso  v.5.1
     Using radial grid of  929 points,  2 beta functions with: 
                l(1) =   0
                l(2) =   0
     Q(r) pseudized with 0 coefficients 


     atomic species   valence    mass     pseudopotential
        Li             3.00     6.94100     Li( 1.00)
        F              7.00    18.99840     F ( 1.00)
        H              1.00     1.00794     H ( 1.00)

      8 Sym. Ops., with inversion, found ( 4 have fractional translation)


                                    s                        frac. trans.

      isym =  1     identity                                     

 cryst.   s( 1) = (     1          0          0      )
                  (     0          1          0      )
                  (     0          0          1      )

 cart.    s( 1) = (  1.0000000  0.0000000  0.0000000 )
                  (  0.0000000  1.0000000  0.0000000 )
                  (  0.0000000  0.0000000  1.0000000 )


      isym =  2     180 deg rotation - cart. axis [0,0,1]        

 cryst.   s( 2) = (    -1          0          0      )    f =(  0.5000000 )
                  (     0         -1          0      )       (  0.5000000 )
                  (     0          0          1      )       (  0.0000000 )

 cart.    s( 2) = ( -1.0000000  0.0000000  0.0000000 )    f =(  0.5000000 )
                  (  0.0000000 -1.0000000  0.0000000 )       (  0.5000000 )
                  (  0.0000000  0.0000000  1.0000000 )       (  0.0000000 )


      isym =  3     180 deg rotation - cart. axis [1,1,0]        

 cryst.   s( 3) = (     0          1          0      )
                  (     1          0          0      )
                  (     0          0         -1      )

 cart.    s( 3) = (  0.0000000  1.0000000  0.0000000 )
                  (  1.0000000  0.0000000  0.0000000 )
                  (  0.0000000  0.0000000 -1.0000000 )


      isym =  4     180 deg rotation - cart. axis [1,-1,0]       

 cryst.   s( 4) = (     0         -1          0      )    f =(  0.5000000 )
                  (    -1          0          0      )       (  0.5000000 )
                  (     0          0         -1      )       (  0.0000000 )

 cart.    s( 4) = (  0.0000000 -1.0000000  0.0000000 )    f =(  0.5000000 )
                  ( -1.0000000  0.0000000  0.0000000 )       (  0.5000000 )
                  (  0.0000000  0.0000000 -1.0000000 )       (  0.0000000 )


      isym =  5     inversion                                    

 cryst.   s( 5) = (    -1          0          0      )    f =(  0.5000000 )
                  (     0         -1          0      )       (  0.5000000 )
                  (     0          0         -1      )       (  0.0000000 )

 cart.    s( 5) = ( -1.0000000  0.0000000  0.0000000 )    f =(  0.5000000 )
                  (  0.0000000 -1.0000000  0.0000000 )       (  0.5000000 )
                  (  0.0000000  0.0000000 -1.0000000 )       (  0.0000000 )


      isym =  6     inv. 180 deg rotation - cart. axis [0,0,1]   

 cryst.   s( 6) = (     1          0          0      )
                  (     0          1          0      )
                  (     0          0         -1      )

 cart.    s( 6) = (  1.0000000  0.0000000  0.0000000 )
                  (  0.0000000  1.0000000  0.0000000 )
                  (  0.0000000  0.0000000 -1.0000000 )


      isym =  7     inv. 180 deg rotation - cart. axis [1,1,0]   

 cryst.   s( 7) = (     0         -1          0      )    f =(  0.5000000 )
                  (    -1          0          0      )       (  0.5000000 )
                  (     0          0          1      )       (  0.0000000 )

 cart.    s( 7) = (  0.0000000 -1.0000000  0.0000000 )    f =(  0.5000000 )
                  ( -1.0000000  0.0000000  0.0000000 )       (  0.5000000 )
                  (  0.0000000  0.0000000  1.0000000 )       (  0.0000000 )


      isym =  8     inv. 180 deg rotation - cart. axis [1,-1,0]  

 cryst.   s( 8) = (     0          1          0      )
                  (     1          0          0      )
                  (     0          0          1      )

 cart.    s( 8) = (  0.0000000  1.0000000  0.0000000 )
                  (  1.0000000  0.0000000  0.0000000 )
                  (  0.0000000  0.0000000  1.0000000 )


   Cartesian axes

     site n.     atom                  positions (alat units)
         1           Li  tau(   1) = (   0.0000000   0.0000000   0.0000000  )
         2           Li  tau(   2) = (   0.0000000   0.5000000   0.5000000  )
         3           Li  tau(   3) = (   0.5000000   0.0000000   0.5000000  )
         4           Li  tau(   4) = (   0.5000000   0.5000000   0.0000000  )
         5           F   tau(   5) = (   0.5000000   0.5000000   0.5000000  )
         6           F   tau(   6) = (   0.5000000   0.0000000   0.0000000  )
         7           F   tau(   7) = (   0.0000000   0.5000000   0.0000000  )
         8           F   tau(   8) = (   0.0000000   0.0000000   0.5000000  )
         9           H   tau(   9) = (   0.2500000   0.2500000   0.5000000  )

   Crystallographic axes

     site n.     atom                  positions (cryst. coord.)
         1           Li  tau(   1) = (  0.0000000  0.0000000  0.0000000  )
         2           Li  tau(   2) = (  0.0000000  0.5000000  0.5000000  )
         3           Li  tau(   3) = (  0.5000000  0.0000000  0.5000000  )
         4           Li  tau(   4) = (  0.5000000  0.5000000  0.0000000  )
         5           F   tau(   5) = (  0.5000000  0.5000000  0.5000000  )
         6           F   tau(   6) = (  0.5000000  0.0000000  0.0000000  )
         7           F   tau(   7) = (  0.0000000  0.5000000  0.0000000  )
         8           F   tau(   8) = (  0.0000000  0.0000000  0.5000000  )
         9           H   tau(   9) = (  0.2500000  0.2500000  0.5000000  )

     number of k points=   301  Marzari-Vanderbilt smearing, width (Ry)=  0.0100
                       cart. coord. in units 2pi/alat
        k(    1) = (   0.0000000   0.0000000   0.0000000), wk =   0.0011574
        k(    2) = (   0.0000000   0.0000000   0.0833333), wk =   0.0023148
        k(    3) = (   0.0000000   0.0000000   0.1666667), wk =   0.0023148
        k(    4) = (   0.0000000   0.0000000   0.2500000), wk =   0.0023148
        k(    5) = (   0.0000000   0.0000000   0.3333333), wk =   0.0023148
        k(    6) = (   0.0000000   0.0000000   0.4166667), wk =   0.0023148
        k(    7) = (   0.0000000   0.0000000  -0.5000000), wk =   0.0011574
        k(    8) = (   0.0000000   0.0833333   0.0833333), wk =   0.0092593
        k(    9) = (   0.0000000   0.0833333   0.1666667), wk =   0.0092593
        k(   10) = (   0.0000000   0.0833333   0.2500000), wk =   0.0092593
        k(   11) = (   0.0000000   0.0833333   0.3333333), wk =   0.0092593
        k(   12) = (   0.0000000   0.0833333   0.4166667), wk =   0.0092593
        k(   13) = (   0.0000000   0.0833333  -0.5000000), wk =   0.0046296
        k(   14) = (   0.0000000   0.1666667   0.1666667), wk =   0.0092593
        k(   15) = (   0.0000000   0.1666667   0.2500000), wk =   0.0092593
        k(   16) = (   0.0000000   0.1666667   0.3333333), wk =   0.0092593
        k(   17) = (   0.0000000   0.1666667   0.4166667), wk =   0.0092593
        k(   18) = (   0.0000000   0.1666667  -0.5000000), wk =   0.0046296
        k(   19) = (   0.0000000   0.2500000   0.2500000), wk =   0.0092593
        k(   20) = (   0.0000000   0.2500000   0.3333333), wk =   0.0092593
        k(   21) = (   0.0000000   0.2500000   0.4166667), wk =   0.0092593
        k(   22) = (   0.0000000   0.2500000  -0.5000000), wk =   0.0046296
        k(   23) = (   0.0000000   0.3333333   0.3333333), wk =   0.0092593
        k(   24) = (   0.0000000   0.3333333   0.4166667), wk =   0.0092593
        k(   25) = (   0.0000000   0.3333333  -0.5000000), wk =   0.0046296
        k(   26) = (   0.0000000   0.4166667   0.4166667), wk =   0.0092593
        k(   27) = (   0.0000000   0.4166667  -0.5000000), wk =   0.0046296
        k(   28) = (   0.0000000  -0.5000000  -0.5000000), wk =   0.0023148
        k(   29) = (   0.0833333   0.0833333   0.0833333), wk =   0.0046296
        k(   30) = (   0.0833333   0.0833333   0.1666667), wk =   0.0046296
        k(   31) = (   0.0833333   0.0833333   0.2500000), wk =   0.0046296
        k(   32) = (   0.0833333   0.0833333   0.3333333), wk =   0.0046296
        k(   33) = (   0.0833333   0.0833333   0.4166667), wk =   0.0046296
        k(   34) = (   0.0833333   0.0833333  -0.5000000), wk =   0.0023148
        k(   35) = (   0.0833333   0.1666667   0.1666667), wk =   0.0092593
        k(   36) = (   0.0833333   0.1666667   0.2500000), wk =   0.0092593
        k(   37) = (   0.0833333   0.1666667   0.3333333), wk =   0.0092593
        k(   38) = (   0.0833333   0.1666667   0.4166667), wk =   0.0092593
        k(   39) = (   0.0833333   0.1666667  -0.5000000), wk =   0.0046296
        k(   40) = (   0.0833333   0.2500000   0.2500000), wk =   0.0092593
        k(   41) = (   0.0833333   0.2500000   0.3333333), wk =   0.0092593
        k(   42) = (   0.0833333   0.2500000   0.4166667), wk =   0.0092593
        k(   43) = (   0.0833333   0.2500000  -0.5000000), wk =   0.0046296
        k(   44) = (   0.0833333   0.3333333   0.3333333), wk =   0.0092593
        k(   45) = (   0.0833333   0.3333333   0.4166667), wk =   0.0092593
        k(   46) = (   0.0833333   0.3333333  -0.5000000), wk =   0.0046296
        k(   47) = (   0.0833333   0.4166667   0.4166667), wk =   0.0092593
        k(   48) = (   0.0833333   0.4166667  -0.5000000), wk =   0.0046296
        k(   49) = (   0.0833333  -0.5000000  -0.5000000), wk =   0.0046296
        k(   50) = (   0.1666667   0.1666667   0.1666667), wk =   0.0046296
        k(   51) = (   0.1666667   0.1666667   0.2500000), wk =   0.0046296
        k(   52) = (   0.1666667   0.1666667   0.3333333), wk =   0.0046296
        k(   53) = (   0.1666667   0.1666667   0.4166667), wk =   0.0046296
        k(   54) = (   0.1666667   0.1666667  -0.5000000), wk =   0.0023148
        k(   55) = (   0.1666667   0.2500000   0.2500000), wk =   0.0092593
        k(   56) = (   0.1666667   0.2500000   0.3333333), wk =   0.0092593
        k(   57) = (   0.1666667   0.2500000   0.4166667), wk =   0.0092593
        k(   58) = (   0.1666667   0.2500000  -0.5000000), wk =   0.0046296
        k(   59) = (   0.1666667   0.3333333   0.3333333), wk =   0.0092593
        k(   60) = (   0.1666667   0.3333333   0.4166667), wk =   0.0092593
        k(   61) = (   0.1666667   0.3333333  -0.5000000), wk =   0.0046296
        k(   62) = (   0.1666667   0.4166667   0.4166667), wk =   0.0092593
        k(   63) = (   0.1666667   0.4166667  -0.5000000), wk =   0.0046296
        k(   64) = (   0.1666667  -0.5000000  -0.5000000), wk =   0.0046296
        k(   65) = (   0.2500000   0.2500000   0.2500000), wk =   0.0046296
        k(   66) = (   0.2500000   0.2500000   0.3333333), wk =   0.0046296
        k(   67) = (   0.2500000   0.2500000   0.4166667), wk =   0.0046296
        k(   68) = (   0.2500000   0.2500000  -0.5000000), wk =   0.0023148
        k(   69) = (   0.2500000   0.3333333   0.3333333), wk =   0.0092593
        k(   70) = (   0.2500000   0.3333333   0.4166667), wk =   0.0092593
        k(   71) = (   0.2500000   0.3333333  -0.5000000), wk =   0.0046296
        k(   72) = (   0.2500000   0.4166667   0.4166667), wk =   0.0092593
        k(   73) = (   0.2500000   0.4166667  -0.5000000), wk =   0.0046296
        k(   74) = (   0.2500000  -0.5000000  -0.5000000), wk =   0.0046296
        k(   75) = (   0.3333333   0.3333333   0.3333333), wk =   0.0046296
        k(   76) = (   0.3333333   0.3333333   0.4166667), wk =   0.0046296
        k(   77) = (   0.3333333   0.3333333  -0.5000000), wk =   0.0023148
        k(   78) = (   0.3333333   0.4166667   0.4166667), wk =   0.0092593
        k(   79) = (   0.3333333   0.4166667  -0.5000000), wk =   0.0046296
        k(   80) = (   0.3333333  -0.5000000  -0.5000000), wk =   0.0046296
        k(   81) = (   0.4166667   0.4166667   0.4166667), wk =   0.0046296
        k(   82) = (   0.4166667   0.4166667  -0.5000000), wk =   0.0023148
        k(   83) = (   0.4166667  -0.5000000  -0.5000000), wk =   0.0046296
        k(   84) = (  -0.5000000  -0.5000000  -0.5000000), wk =   0.0011574
        k(   85) = (   0.0833333   0.0000000   0.0000000), wk =   0.0046296
        k(   86) = (   0.1666667   0.0000000   0.0000000), wk =   0.0046296
        k(   87) = (   0.2500000   0.0000000   0.0000000), wk =   0.0046296
        k(   88) = (   0.3333333   0.0000000   0.0000000), wk =   0.0046296
        k(   89) = (   0.4166667   0.0000000   0.0000000), wk =   0.0046296
        k(   90) = (  -0.5000000   0.0000000   0.0000000), wk =   0.0023148
        k(   91) = (   0.0833333  -0.0833333   0.0000000), wk =   0.0023148
        k(   92) = (  -0.0833333  -0.0833333   0.0000000), wk =   0.0023148
        k(   93) = (   0.1666667  -0.0833333   0.0000000), wk =   0.0046296
        k(   94) = (  -0.1666667  -0.0833333   0.0000000), wk =   0.0046296
        k(   95) = (   0.0000000   0.1666667   0.0833333), wk =   0.0092593
        k(   96) = (   0.2500000  -0.0833333   0.0000000), wk =   0.0046296
        k(   97) = (  -0.2500000  -0.0833333   0.0000000), wk =   0.0046296
        k(   98) = (   0.0000000   0.2500000   0.0833333), wk =   0.0092593
        k(   99) = (   0.3333333  -0.0833333   0.0000000), wk =   0.0046296
        k(  100) = (  -0.3333333  -0.0833333   0.0000000), wk =   0.0046296
        k(  101) = (   0.0000000   0.3333333   0.0833333), wk =   0.0092593
        k(  102) = (   0.4166667  -0.0833333   0.0000000), wk =   0.0046296
        k(  103) = (  -0.4166667  -0.0833333   0.0000000), wk =   0.0046296
        k(  104) = (   0.0000000   0.4166667   0.0833333), wk =   0.0092593
        k(  105) = (  -0.5000000  -0.0833333   0.0000000), wk =   0.0046296
        k(  106) = (   0.0000000  -0.5000000   0.0833333), wk =   0.0046296
        k(  107) = (   0.1666667  -0.1666667   0.0000000), wk =   0.0023148
        k(  108) = (  -0.1666667  -0.1666667   0.0000000), wk =   0.0023148
        k(  109) = (   0.2500000  -0.1666667   0.0000000), wk =   0.0046296
        k(  110) = (  -0.2500000  -0.1666667   0.0000000), wk =   0.0046296
        k(  111) = (   0.0000000   0.2500000   0.1666667), wk =   0.0092593
        k(  112) = (   0.3333333  -0.1666667   0.0000000), wk =   0.0046296
        k(  113) = (  -0.3333333  -0.1666667   0.0000000), wk =   0.0046296
        k(  114) = (   0.0000000   0.3333333   0.1666667), wk =   0.0092593
        k(  115) = (   0.4166667  -0.1666667   0.0000000), wk =   0.0046296
        k(  116) = (  -0.4166667  -0.1666667   0.0000000), wk =   0.0046296
        k(  117) = (   0.0000000   0.4166667   0.1666667), wk =   0.0092593
        k(  118) = (  -0.5000000  -0.1666667   0.0000000), wk =   0.0046296
        k(  119) = (   0.0000000  -0.5000000   0.1666667), wk =   0.0046296
        k(  120) = (   0.2500000  -0.2500000   0.0000000), wk =   0.0023148
        k(  121) = (  -0.2500000  -0.2500000   0.0000000), wk =   0.0023148
        k(  122) = (   0.3333333  -0.2500000   0.0000000), wk =   0.0046296
        k(  123) = (  -0.3333333  -0.2500000   0.0000000), wk =   0.0046296
        k(  124) = (   0.0000000   0.3333333   0.2500000), wk =   0.0092593
        k(  125) = (   0.4166667  -0.2500000   0.0000000), wk =   0.0046296
        k(  126) = (  -0.4166667  -0.2500000   0.0000000), wk =   0.0046296
        k(  127) = (   0.0000000   0.4166667   0.2500000), wk =   0.0092593
        k(  128) = (  -0.5000000  -0.2500000   0.0000000), wk =   0.0046296
        k(  129) = (   0.0000000  -0.5000000   0.2500000), wk =   0.0046296
        k(  130) = (   0.3333333  -0.3333333   0.0000000), wk =   0.0023148
        k(  131) = (  -0.3333333  -0.3333333   0.0000000), wk =   0.0023148
        k(  132) = (   0.4166667  -0.3333333   0.0000000), wk =   0.0046296
        k(  133) = (  -0.4166667  -0.3333333   0.0000000), wk =   0.0046296
        k(  134) = (   0.0000000   0.4166667   0.3333333), wk =   0.0092593
        k(  135) = (  -0.5000000  -0.3333333   0.0000000), wk =   0.0046296
        k(  136) = (   0.0000000  -0.5000000   0.3333333), wk =   0.0046296
        k(  137) = (   0.4166667  -0.4166667   0.0000000), wk =   0.0023148
        k(  138) = (  -0.4166667  -0.4166667   0.0000000), wk =   0.0023148
        k(  139) = (  -0.5000000  -0.4166667   0.0000000), wk =   0.0046296
        k(  140) = (   0.0000000  -0.5000000   0.4166667), wk =   0.0046296
        k(  141) = (  -0.5000000   0.5000000   0.0000000), wk =   0.0011574
        k(  142) = (   0.0833333  -0.0833333   0.0833333), wk =   0.0046296
        k(  143) = (   0.1666667  -0.0833333   0.0833333), wk =   0.0092593
        k(  144) = (  -0.1666667  -0.0833333  -0.0833333), wk =   0.0092593
        k(  145) = (  -0.0833333   0.0833333  -0.1666667), wk =   0.0046296
        k(  146) = (   0.2500000  -0.0833333   0.0833333), wk =   0.0092593
        k(  147) = (  -0.2500000  -0.0833333  -0.0833333), wk =   0.0092593
        k(  148) = (  -0.0833333   0.0833333  -0.2500000), wk =   0.0046296
        k(  149) = (   0.3333333  -0.0833333   0.0833333), wk =   0.0092593
        k(  150) = (  -0.3333333  -0.0833333  -0.0833333), wk =   0.0092593
        k(  151) = (  -0.0833333   0.0833333  -0.3333333), wk =   0.0046296
        k(  152) = (   0.4166667  -0.0833333   0.0833333), wk =   0.0092593
        k(  153) = (  -0.4166667  -0.0833333  -0.0833333), wk =   0.0092593
        k(  154) = (  -0.0833333   0.0833333  -0.4166667), wk =   0.0046296
        k(  155) = (  -0.5000000  -0.0833333   0.0833333), wk =   0.0092593
        k(  156) = (  -0.0833333   0.0833333   0.5000000), wk =   0.0023148
        k(  157) = (   0.1666667  -0.1666667   0.0833333), wk =   0.0046296
        k(  158) = (  -0.1666667  -0.1666667  -0.0833333), wk =   0.0046296
        k(  159) = (  -0.0833333   0.1666667   0.1666667), wk =   0.0092593
        k(  160) = (   0.2500000  -0.1666667   0.0833333), wk =   0.0092593
        k(  161) = (  -0.2500000  -0.1666667  -0.0833333), wk =   0.0092593
        k(  162) = (  -0.0833333   0.2500000   0.1666667), wk =   0.0092593
        k(  163) = (  -0.0833333  -0.2500000  -0.1666667), wk =   0.0092593
        k(  164) = (  -0.0833333   0.1666667  -0.2500000), wk =   0.0092593
        k(  165) = (   0.3333333  -0.1666667   0.0833333), wk =   0.0092593
        k(  166) = (  -0.3333333  -0.1666667  -0.0833333), wk =   0.0092593
        k(  167) = (  -0.0833333   0.3333333   0.1666667), wk =   0.0092593
        k(  168) = (  -0.0833333  -0.3333333  -0.1666667), wk =   0.0092593
        k(  169) = (  -0.0833333   0.1666667  -0.3333333), wk =   0.0092593
        k(  170) = (   0.4166667  -0.1666667   0.0833333), wk =   0.0092593
        k(  171) = (  -0.4166667  -0.1666667  -0.0833333), wk =   0.0092593
        k(  172) = (  -0.0833333   0.4166667   0.1666667), wk =   0.0092593
        k(  173) = (  -0.0833333  -0.4166667  -0.1666667), wk =   0.0092593
        k(  174) = (  -0.0833333   0.1666667  -0.4166667), wk =   0.0092593
        k(  175) = (  -0.5000000  -0.1666667   0.0833333), wk =   0.0092593
        k(  176) = (  -0.0833333  -0.5000000   0.1666667), wk =   0.0092593
        k(  177) = (  -0.0833333   0.1666667   0.5000000), wk =   0.0046296
        k(  178) = (   0.2500000  -0.2500000   0.0833333), wk =   0.0046296
        k(  179) = (  -0.2500000  -0.2500000  -0.0833333), wk =   0.0046296
        k(  180) = (  -0.0833333   0.2500000   0.2500000), wk =   0.0092593
        k(  181) = (   0.3333333  -0.2500000   0.0833333), wk =   0.0092593
        k(  182) = (  -0.3333333  -0.2500000  -0.0833333), wk =   0.0092593
        k(  183) = (  -0.0833333   0.3333333   0.2500000), wk =   0.0092593
        k(  184) = (  -0.0833333  -0.3333333  -0.2500000), wk =   0.0092593
        k(  185) = (  -0.0833333   0.2500000  -0.3333333), wk =   0.0092593
        k(  186) = (   0.4166667  -0.2500000   0.0833333), wk =   0.0092593
        k(  187) = (  -0.4166667  -0.2500000  -0.0833333), wk =   0.0092593
        k(  188) = (  -0.0833333   0.4166667   0.2500000), wk =   0.0092593
        k(  189) = (  -0.0833333  -0.4166667  -0.2500000), wk =   0.0092593
        k(  190) = (  -0.0833333   0.2500000  -0.4166667), wk =   0.0092593
        k(  191) = (  -0.5000000  -0.2500000   0.0833333), wk =   0.0092593
        k(  192) = (  -0.0833333  -0.5000000   0.2500000), wk =   0.0092593
        k(  193) = (  -0.0833333   0.2500000   0.5000000), wk =   0.0046296
        k(  194) = (   0.3333333  -0.3333333   0.0833333), wk =   0.0046296
        k(  195) = (  -0.3333333  -0.3333333  -0.0833333), wk =   0.0046296
        k(  196) = (  -0.0833333   0.3333333   0.3333333), wk =   0.0092593
        k(  197) = (   0.4166667  -0.3333333   0.0833333), wk =   0.0092593
        k(  198) = (  -0.4166667  -0.3333333  -0.0833333), wk =   0.0092593
        k(  199) = (  -0.0833333   0.4166667   0.3333333), wk =   0.0092593
        k(  200) = (  -0.0833333  -0.4166667  -0.3333333), wk =   0.0092593
        k(  201) = (  -0.0833333   0.3333333  -0.4166667), wk =   0.0092593
        k(  202) = (  -0.5000000  -0.3333333   0.0833333), wk =   0.0092593
        k(  203) = (  -0.0833333  -0.5000000   0.3333333), wk =   0.0092593
        k(  204) = (  -0.0833333   0.3333333   0.5000000), wk =   0.0046296
        k(  205) = (   0.4166667  -0.4166667   0.0833333), wk =   0.0046296
        k(  206) = (  -0.4166667  -0.4166667  -0.0833333), wk =   0.0046296
        k(  207) = (  -0.0833333   0.4166667   0.4166667), wk =   0.0092593
        k(  208) = (  -0.5000000  -0.4166667   0.0833333), wk =   0.0092593
        k(  209) = (  -0.0833333  -0.5000000   0.4166667), wk =   0.0092593
        k(  210) = (  -0.0833333   0.4166667   0.5000000), wk =   0.0046296
        k(  211) = (  -0.5000000   0.5000000   0.0833333), wk =   0.0023148
        k(  212) = (   0.1666667  -0.1666667   0.1666667), wk =   0.0046296
        k(  213) = (   0.2500000  -0.1666667   0.1666667), wk =   0.0092593
        k(  214) = (  -0.2500000  -0.1666667  -0.1666667), wk =   0.0092593
        k(  215) = (  -0.1666667   0.1666667  -0.2500000), wk =   0.0046296
        k(  216) = (   0.3333333  -0.1666667   0.1666667), wk =   0.0092593
        k(  217) = (  -0.3333333  -0.1666667  -0.1666667), wk =   0.0092593
        k(  218) = (  -0.1666667   0.1666667  -0.3333333), wk =   0.0046296
        k(  219) = (   0.4166667  -0.1666667   0.1666667), wk =   0.0092593
        k(  220) = (  -0.4166667  -0.1666667  -0.1666667), wk =   0.0092593
        k(  221) = (  -0.1666667   0.1666667  -0.4166667), wk =   0.0046296
        k(  222) = (  -0.5000000  -0.1666667   0.1666667), wk =   0.0092593
        k(  223) = (  -0.1666667   0.1666667   0.5000000), wk =   0.0023148
        k(  224) = (   0.2500000  -0.2500000   0.1666667), wk =   0.0046296
        k(  225) = (  -0.2500000  -0.2500000  -0.1666667), wk =   0.0046296
        k(  226) = (  -0.1666667   0.2500000   0.2500000), wk =   0.0092593
        k(  227) = (   0.3333333  -0.2500000   0.1666667), wk =   0.0092593
        k(  228) = (  -0.3333333  -0.2500000  -0.1666667), wk =   0.0092593
        k(  229) = (  -0.1666667   0.3333333   0.2500000), wk =   0.0092593
        k(  230) = (  -0.1666667  -0.3333333  -0.2500000), wk =   0.0092593
        k(  231) = (  -0.1666667   0.2500000  -0.3333333), wk =   0.0092593
        k(  232) = (   0.4166667  -0.2500000   0.1666667), wk =   0.0092593
        k(  233) = (  -0.4166667  -0.2500000  -0.1666667), wk =   0.0092593
        k(  234) = (  -0.1666667   0.4166667   0.2500000), wk =   0.0092593
        k(  235) = (  -0.1666667  -0.4166667  -0.2500000), wk =   0.0092593
        k(  236) = (  -0.1666667   0.2500000  -0.4166667), wk =   0.0092593
        k(  237) = (  -0.5000000  -0.2500000   0.1666667), wk =   0.0092593
        k(  238) = (  -0.1666667  -0.5000000   0.2500000), wk =   0.0092593
        k(  239) = (  -0.1666667   0.2500000   0.5000000), wk =   0.0046296
        k(  240) = (   0.3333333  -0.3333333   0.1666667), wk =   0.0046296
        k(  241) = (  -0.3333333  -0.3333333  -0.1666667), wk =   0.0046296
        k(  242) = (  -0.1666667   0.3333333   0.3333333), wk =   0.0092593
        k(  243) = (   0.4166667  -0.3333333   0.1666667), wk =   0.0092593
        k(  244) = (  -0.4166667  -0.3333333  -0.1666667), wk =   0.0092593
        k(  245) = (  -0.1666667   0.4166667   0.3333333), wk =   0.0092593
        k(  246) = (  -0.1666667  -0.4166667  -0.3333333), wk =   0.0092593
        k(  247) = (  -0.1666667   0.3333333  -0.4166667), wk =   0.0092593
        k(  248) = (  -0.5000000  -0.3333333   0.1666667), wk =   0.0092593
        k(  249) = (  -0.1666667  -0.5000000   0.3333333), wk =   0.0092593
        k(  250) = (  -0.1666667   0.3333333   0.5000000), wk =   0.0046296
        k(  251) = (   0.4166667  -0.4166667   0.1666667), wk =   0.0046296
        k(  252) = (  -0.4166667  -0.4166667  -0.1666667), wk =   0.0046296
        k(  253) = (  -0.1666667   0.4166667   0.4166667), wk =   0.0092593
        k(  254) = (  -0.5000000  -0.4166667   0.1666667), wk =   0.0092593
        k(  255) = (  -0.1666667  -0.5000000   0.4166667), wk =   0.0092593
        k(  256) = (  -0.1666667   0.4166667   0.5000000), wk =   0.0046296
        k(  257) = (  -0.5000000   0.5000000   0.1666667), wk =   0.0023148
        k(  258) = (   0.2500000  -0.2500000   0.2500000), wk =   0.0046296
        k(  259) = (   0.3333333  -0.2500000   0.2500000), wk =   0.0092593
        k(  260) = (  -0.3333333  -0.2500000  -0.2500000), wk =   0.0092593
        k(  261) = (  -0.2500000   0.2500000  -0.3333333), wk =   0.0046296
        k(  262) = (   0.4166667  -0.2500000   0.2500000), wk =   0.0092593
        k(  263) = (  -0.4166667  -0.2500000  -0.2500000), wk =   0.0092593
        k(  264) = (  -0.2500000   0.2500000  -0.4166667), wk =   0.0046296
        k(  265) = (  -0.5000000  -0.2500000   0.2500000), wk =   0.0092593
        k(  266) = (  -0.2500000   0.2500000   0.5000000), wk =   0.0023148
        k(  267) = (   0.3333333  -0.3333333   0.2500000), wk =   0.0046296
        k(  268) = (  -0.3333333  -0.3333333  -0.2500000), wk =   0.0046296
        k(  269) = (  -0.2500000   0.3333333   0.3333333), wk =   0.0092593
        k(  270) = (   0.4166667  -0.3333333   0.2500000), wk =   0.0092593
        k(  271) = (  -0.4166667  -0.3333333  -0.2500000), wk =   0.0092593
        k(  272) = (  -0.2500000   0.4166667   0.3333333), wk =   0.0092593
        k(  273) = (  -0.2500000  -0.4166667  -0.3333333), wk =   0.0092593
        k(  274) = (  -0.2500000   0.3333333  -0.4166667), wk =   0.0092593
        k(  275) = (  -0.5000000  -0.3333333   0.2500000), wk =   0.0092593
        k(  276) = (  -0.2500000  -0.5000000   0.3333333), wk =   0.0092593
        k(  277) = (  -0.2500000   0.3333333   0.5000000), wk =   0.0046296
        k(  278) = (   0.4166667  -0.4166667   0.2500000), wk =   0.0046296
        k(  279) = (  -0.4166667  -0.4166667  -0.2500000), wk =   0.0046296
        k(  280) = (  -0.2500000   0.4166667   0.4166667), wk =   0.0092593
        k(  281) = (  -0.5000000  -0.4166667   0.2500000), wk =   0.0092593
        k(  282) = (  -0.2500000  -0.5000000   0.4166667), wk =   0.0092593
        k(  283) = (  -0.2500000   0.4166667   0.5000000), wk =   0.0046296
        k(  284) = (  -0.5000000   0.5000000   0.2500000), wk =   0.0023148
        k(  285) = (   0.3333333  -0.3333333   0.3333333), wk =   0.0046296
        k(  286) = (   0.4166667  -0.3333333   0.3333333), wk =   0.0092593
        k(  287) = (  -0.4166667  -0.3333333  -0.3333333), wk =   0.0092593
        k(  288) = (  -0.3333333   0.3333333  -0.4166667), wk =   0.0046296
        k(  289) = (  -0.5000000  -0.3333333   0.3333333), wk =   0.0092593
        k(  290) = (  -0.3333333   0.3333333   0.5000000), wk =   0.0023148
        k(  291) = (   0.4166667  -0.4166667   0.3333333), wk =   0.0046296
        k(  292) = (  -0.4166667  -0.4166667  -0.3333333), wk =   0.0046296
        k(  293) = (  -0.3333333   0.4166667   0.4166667), wk =   0.0092593
        k(  294) = (  -0.5000000  -0.4166667   0.3333333), wk =   0.0092593
        k(  295) = (  -0.3333333  -0.5000000   0.4166667), wk =   0.0092593
        k(  296) = (  -0.3333333   0.4166667   0.5000000), wk =   0.0046296
        k(  297) = (  -0.5000000   0.5000000   0.3333333), wk =   0.0023148
        k(  298) = (   0.4166667  -0.4166667   0.4166667), wk =   0.0046296
        k(  299) = (  -0.5000000  -0.4166667   0.4166667), wk =   0.0092593
        k(  300) = (  -0.4166667   0.4166667   0.5000000), wk =   0.0023148
        k(  301) = (  -0.5000000   0.5000000   0.4166667), wk =   0.0023148

                       cryst. coord.
        k(    1) = (   0.0000000   0.0000000   0.0000000), wk =   0.0011574
        k(    2) = (   0.0000000   0.0000000   0.0833333), wk =   0.0023148
        k(    3) = (   0.0000000   0.0000000   0.1666667), wk =   0.0023148
        k(    4) = (   0.0000000   0.0000000   0.2500000), wk =   0.0023148
        k(    5) = (   0.0000000   0.0000000   0.3333333), wk =   0.0023148
        k(    6) = (   0.0000000   0.0000000   0.4166667), wk =   0.0023148
        k(    7) = (   0.0000000   0.0000000  -0.5000000), wk =   0.0011574
        k(    8) = (   0.0000000   0.0833333   0.0833333), wk =   0.0092593
        k(    9) = (   0.0000000   0.0833333   0.1666667), wk =   0.0092593
        k(   10) = (   0.0000000   0.0833333   0.2500000), wk =   0.0092593
        k(   11) = (   0.0000000   0.0833333   0.3333333), wk =   0.0092593
        k(   12) = (   0.0000000   0.0833333   0.4166667), wk =   0.0092593
        k(   13) = (   0.0000000   0.0833333  -0.5000000), wk =   0.0046296
        k(   14) = (   0.0000000   0.1666667   0.1666667), wk =   0.0092593
        k(   15) = (   0.0000000   0.1666667   0.2500000), wk =   0.0092593
        k(   16) = (   0.0000000   0.1666667   0.3333333), wk =   0.0092593
        k(   17) = (   0.0000000   0.1666667   0.4166667), wk =   0.0092593
        k(   18) = (   0.0000000   0.1666667  -0.5000000), wk =   0.0046296
        k(   19) = (   0.0000000   0.2500000   0.2500000), wk =   0.0092593
        k(   20) = (   0.0000000   0.2500000   0.3333333), wk =   0.0092593
        k(   21) = (   0.0000000   0.2500000   0.4166667), wk =   0.0092593
        k(   22) = (   0.0000000   0.2500000  -0.5000000), wk =   0.0046296
        k(   23) = (   0.0000000   0.3333333   0.3333333), wk =   0.0092593
        k(   24) = (   0.0000000   0.3333333   0.4166667), wk =   0.0092593
        k(   25) = (   0.0000000   0.3333333  -0.5000000), wk =   0.0046296
        k(   26) = (   0.0000000   0.4166667   0.4166667), wk =   0.0092593
        k(   27) = (   0.0000000   0.4166667  -0.5000000), wk =   0.0046296
        k(   28) = (   0.0000000  -0.5000000  -0.5000000), wk =   0.0023148
        k(   29) = (   0.0833333   0.0833333   0.0833333), wk =   0.0046296
        k(   30) = (   0.0833333   0.0833333   0.1666667), wk =   0.0046296
        k(   31) = (   0.0833333   0.0833333   0.2500000), wk =   0.0046296
        k(   32) = (   0.0833333   0.0833333   0.3333333), wk =   0.0046296
        k(   33) = (   0.0833333   0.0833333   0.4166667), wk =   0.0046296
        k(   34) = (   0.0833333   0.0833333  -0.5000000), wk =   0.0023148
        k(   35) = (   0.0833333   0.1666667   0.1666667), wk =   0.0092593
        k(   36) = (   0.0833333   0.1666667   0.2500000), wk =   0.0092593
        k(   37) = (   0.0833333   0.1666667   0.3333333), wk =   0.0092593
        k(   38) = (   0.0833333   0.1666667   0.4166667), wk =   0.0092593
        k(   39) = (   0.0833333   0.1666667  -0.5000000), wk =   0.0046296
        k(   40) = (   0.0833333   0.2500000   0.2500000), wk =   0.0092593
        k(   41) = (   0.0833333   0.2500000   0.3333333), wk =   0.0092593
        k(   42) = (   0.0833333   0.2500000   0.4166667), wk =   0.0092593
        k(   43) = (   0.0833333   0.2500000  -0.5000000), wk =   0.0046296
        k(   44) = (   0.0833333   0.3333333   0.3333333), wk =   0.0092593
        k(   45) = (   0.0833333   0.3333333   0.4166667), wk =   0.0092593
        k(   46) = (   0.0833333   0.3333333  -0.5000000), wk =   0.0046296
        k(   47) = (   0.0833333   0.4166667   0.4166667), wk =   0.0092593
        k(   48) = (   0.0833333   0.4166667  -0.5000000), wk =   0.0046296
        k(   49) = (   0.0833333  -0.5000000  -0.5000000), wk =   0.0046296
        k(   50) = (   0.1666667   0.1666667   0.1666667), wk =   0.0046296
        k(   51) = (   0.1666667   0.1666667   0.2500000), wk =   0.0046296
        k(   52) = (   0.1666667   0.1666667   0.3333333), wk =   0.0046296
        k(   53) = (   0.1666667   0.1666667   0.4166667), wk =   0.0046296
        k(   54) = (   0.1666667   0.1666667  -0.5000000), wk =   0.0023148
        k(   55) = (   0.1666667   0.2500000   0.2500000), wk =   0.0092593
        k(   56) = (   0.1666667   0.2500000   0.3333333), wk =   0.0092593
        k(   57) = (   0.1666667   0.2500000   0.4166667), wk =   0.0092593
        k(   58) = (   0.1666667   0.2500000  -0.5000000), wk =   0.0046296
        k(   59) = (   0.1666667   0.3333333   0.3333333), wk =   0.0092593
        k(   60) = (   0.1666667   0.3333333   0.4166667), wk =   0.0092593
        k(   61) = (   0.1666667   0.3333333  -0.5000000), wk =   0.0046296
        k(   62) = (   0.1666667   0.4166667   0.4166667), wk =   0.0092593
        k(   63) = (   0.1666667   0.4166667  -0.5000000), wk =   0.0046296
        k(   64) = (   0.1666667  -0.5000000  -0.5000000), wk =   0.0046296
        k(   65) = (   0.2500000   0.2500000   0.2500000), wk =   0.0046296
        k(   66) = (   0.2500000   0.2500000   0.3333333), wk =   0.0046296
        k(   67) = (   0.2500000   0.2500000   0.4166667), wk =   0.0046296
        k(   68) = (   0.2500000   0.2500000  -0.5000000), wk =   0.0023148
        k(   69) = (   0.2500000   0.3333333   0.3333333), wk =   0.0092593
        k(   70) = (   0.2500000   0.3333333   0.4166667), wk =   0.0092593
        k(   71) = (   0.2500000   0.3333333  -0.5000000), wk =   0.0046296
        k(   72) = (   0.2500000   0.4166667   0.4166667), wk =   0.0092593
        k(   73) = (   0.2500000   0.4166667  -0.5000000), wk =   0.0046296
        k(   74) = (   0.2500000  -0.5000000  -0.5000000), wk =   0.0046296
        k(   75) = (   0.3333333   0.3333333   0.3333333), wk =   0.0046296
        k(   76) = (   0.3333333   0.3333333   0.4166667), wk =   0.0046296
        k(   77) = (   0.3333333   0.3333333  -0.5000000), wk =   0.0023148
        k(   78) = (   0.3333333   0.4166667   0.4166667), wk =   0.0092593
        k(   79) = (   0.3333333   0.4166667  -0.5000000), wk =   0.0046296
        k(   80) = (   0.3333333  -0.5000000  -0.5000000), wk =   0.0046296
        k(   81) = (   0.4166667   0.4166667   0.4166667), wk =   0.0046296
        k(   82) = (   0.4166667   0.4166667  -0.5000000), wk =   0.0023148
        k(   83) = (   0.4166667  -0.5000000  -0.5000000), wk =   0.0046296
        k(   84) = (  -0.5000000  -0.5000000  -0.5000000), wk =   0.0011574
        k(   85) = (   0.0833333   0.0000000   0.0000000), wk =   0.0046296
        k(   86) = (   0.1666667   0.0000000   0.0000000), wk =   0.0046296
        k(   87) = (   0.2500000   0.0000000   0.0000000), wk =   0.0046296
        k(   88) = (   0.3333333   0.0000000   0.0000000), wk =   0.0046296
        k(   89) = (   0.4166667   0.0000000   0.0000000), wk =   0.0046296
        k(   90) = (  -0.5000000   0.0000000   0.0000000), wk =   0.0023148
        k(   91) = (   0.0833333  -0.0833333   0.0000000), wk =   0.0023148
        k(   92) = (  -0.0833333  -0.0833333   0.0000000), wk =   0.0023148
        k(   93) = (   0.1666667  -0.0833333   0.0000000), wk =   0.0046296
        k(   94) = (  -0.1666667  -0.0833333   0.0000000), wk =   0.0046296
        k(   95) = (   0.0000000   0.1666667   0.0833333), wk =   0.0092593
        k(   96) = (   0.2500000  -0.0833333   0.0000000), wk =   0.0046296
        k(   97) = (  -0.2500000  -0.0833333   0.0000000), wk =   0.0046296
        k(   98) = (   0.0000000   0.2500000   0.0833333), wk =   0.0092593
        k(   99) = (   0.3333333  -0.0833333   0.0000000), wk =   0.0046296
        k(  100) = (  -0.3333333  -0.0833333   0.0000000), wk =   0.0046296
        k(  101) = (   0.0000000   0.3333333   0.0833333), wk =   0.0092593
        k(  102) = (   0.4166667  -0.0833333   0.0000000), wk =   0.0046296
        k(  103) = (  -0.4166667  -0.0833333   0.0000000), wk =   0.0046296
        k(  104) = (   0.0000000   0.4166667   0.0833333), wk =   0.0092593
        k(  105) = (  -0.5000000  -0.0833333   0.0000000), wk =   0.0046296
        k(  106) = (   0.0000000  -0.5000000   0.0833333), wk =   0.0046296
        k(  107) = (   0.1666667  -0.1666667   0.0000000), wk =   0.0023148
        k(  108) = (  -0.1666667  -0.1666667   0.0000000), wk =   0.0023148
        k(  109) = (   0.2500000  -0.1666667   0.0000000), wk =   0.0046296
        k(  110) = (  -0.2500000  -0.1666667   0.0000000), wk =   0.0046296
        k(  111) = (   0.0000000   0.2500000   0.1666667), wk =   0.0092593
        k(  112) = (   0.3333333  -0.1666667   0.0000000), wk =   0.0046296
        k(  113) = (  -0.3333333  -0.1666667   0.0000000), wk =   0.0046296
        k(  114) = (   0.0000000   0.3333333   0.1666667), wk =   0.0092593
        k(  115) = (   0.4166667  -0.1666667   0.0000000), wk =   0.0046296
        k(  116) = (  -0.4166667  -0.1666667   0.0000000), wk =   0.0046296
        k(  117) = (   0.0000000   0.4166667   0.1666667), wk =   0.0092593
        k(  118) = (  -0.5000000  -0.1666667   0.0000000), wk =   0.0046296
        k(  119) = (   0.0000000  -0.5000000   0.1666667), wk =   0.0046296
        k(  120) = (   0.2500000  -0.2500000   0.0000000), wk =   0.0023148
        k(  121) = (  -0.2500000  -0.2500000   0.0000000), wk =   0.0023148
        k(  122) = (   0.3333333  -0.2500000   0.0000000), wk =   0.0046296
        k(  123) = (  -0.3333333  -0.2500000   0.0000000), wk =   0.0046296
        k(  124) = (   0.0000000   0.3333333   0.2500000), wk =   0.0092593
        k(  125) = (   0.4166667  -0.2500000   0.0000000), wk =   0.0046296
        k(  126) = (  -0.4166667  -0.2500000   0.0000000), wk =   0.0046296
        k(  127) = (   0.0000000   0.4166667   0.2500000), wk =   0.0092593
        k(  128) = (  -0.5000000  -0.2500000   0.0000000), wk =   0.0046296
        k(  129) = (   0.0000000  -0.5000000   0.2500000), wk =   0.0046296
        k(  130) = (   0.3333333  -0.3333333   0.0000000), wk =   0.0023148
        k(  131) = (  -0.3333333  -0.3333333   0.0000000), wk =   0.0023148
        k(  132) = (   0.4166667  -0.3333333   0.0000000), wk =   0.0046296
        k(  133) = (  -0.4166667  -0.3333333   0.0000000), wk =   0.0046296
        k(  134) = (   0.0000000   0.4166667   0.3333333), wk =   0.0092593
        k(  135) = (  -0.5000000  -0.3333333   0.0000000), wk =   0.0046296
        k(  136) = (   0.0000000  -0.5000000   0.3333333), wk =   0.0046296
        k(  137) = (   0.4166667  -0.4166667   0.0000000), wk =   0.0023148
        k(  138) = (  -0.4166667  -0.4166667   0.0000000), wk =   0.0023148
        k(  139) = (  -0.5000000  -0.4166667   0.0000000), wk =   0.0046296
        k(  140) = (   0.0000000  -0.5000000   0.4166667), wk =   0.0046296
        k(  141) = (  -0.5000000   0.5000000   0.0000000), wk =   0.0011574
        k(  142) = (   0.0833333  -0.0833333   0.0833333), wk =   0.0046296
        k(  143) = (   0.1666667  -0.0833333   0.0833333), wk =   0.0092593
        k(  144) = (  -0.1666667  -0.0833333  -0.0833333), wk =   0.0092593
        k(  145) = (  -0.0833333   0.0833333  -0.1666667), wk =   0.0046296
        k(  146) = (   0.2500000  -0.0833333   0.0833333), wk =   0.0092593
        k(  147) = (  -0.2500000  -0.0833333  -0.0833333), wk =   0.0092593
        k(  148) = (  -0.0833333   0.0833333  -0.2500000), wk =   0.0046296
        k(  149) = (   0.3333333  -0.0833333   0.0833333), wk =   0.0092593
        k(  150) = (  -0.3333333  -0.0833333  -0.0833333), wk =   0.0092593
        k(  151) = (  -0.0833333   0.0833333  -0.3333333), wk =   0.0046296
        k(  152) = (   0.4166667  -0.0833333   0.0833333), wk =   0.0092593
        k(  153) = (  -0.4166667  -0.0833333  -0.0833333), wk =   0.0092593
        k(  154) = (  -0.0833333   0.0833333  -0.4166667), wk =   0.0046296
        k(  155) = (  -0.5000000  -0.0833333   0.0833333), wk =   0.0092593
        k(  156) = (  -0.0833333   0.0833333   0.5000000), wk =   0.0023148
        k(  157) = (   0.1666667  -0.1666667   0.0833333), wk =   0.0046296
        k(  158) = (  -0.1666667  -0.1666667  -0.0833333), wk =   0.0046296
        k(  159) = (  -0.0833333   0.1666667   0.1666667), wk =   0.0092593
        k(  160) = (   0.2500000  -0.1666667   0.0833333), wk =   0.0092593
        k(  161) = (  -0.2500000  -0.1666667  -0.0833333), wk =   0.0092593
        k(  162) = (  -0.0833333   0.2500000   0.1666667), wk =   0.0092593
        k(  163) = (  -0.0833333  -0.2500000  -0.1666667), wk =   0.0092593
        k(  164) = (  -0.0833333   0.1666667  -0.2500000), wk =   0.0092593
        k(  165) = (   0.3333333  -0.1666667   0.0833333), wk =   0.0092593
        k(  166) = (  -0.3333333  -0.1666667  -0.0833333), wk =   0.0092593
        k(  167) = (  -0.0833333   0.3333333   0.1666667), wk =   0.0092593
        k(  168) = (  -0.0833333  -0.3333333  -0.1666667), wk =   0.0092593
        k(  169) = (  -0.0833333   0.1666667  -0.3333333), wk =   0.0092593
        k(  170) = (   0.4166667  -0.1666667   0.0833333), wk =   0.0092593
        k(  171) = (  -0.4166667  -0.1666667  -0.0833333), wk =   0.0092593
        k(  172) = (  -0.0833333   0.4166667   0.1666667), wk =   0.0092593
        k(  173) = (  -0.0833333  -0.4166667  -0.1666667), wk =   0.0092593
        k(  174) = (  -0.0833333   0.1666667  -0.4166667), wk =   0.0092593
        k(  175) = (  -0.5000000  -0.1666667   0.0833333), wk =   0.0092593
        k(  176) = (  -0.0833333  -0.5000000   0.1666667), wk =   0.0092593
        k(  177) = (  -0.0833333   0.1666667   0.5000000), wk =   0.0046296
        k(  178) = (   0.2500000  -0.2500000   0.0833333), wk =   0.0046296
        k(  179) = (  -0.2500000  -0.2500000  -0.0833333), wk =   0.0046296
        k(  180) = (  -0.0833333   0.2500000   0.2500000), wk =   0.0092593
        k(  181) = (   0.3333333  -0.2500000   0.0833333), wk =   0.0092593
        k(  182) = (  -0.3333333  -0.2500000  -0.0833333), wk =   0.0092593
        k(  183) = (  -0.0833333   0.3333333   0.2500000), wk =   0.0092593
        k(  184) = (  -0.0833333  -0.3333333  -0.2500000), wk =   0.0092593
        k(  185) = (  -0.0833333   0.2500000  -0.3333333), wk =   0.0092593
        k(  186) = (   0.4166667  -0.2500000   0.0833333), wk =   0.0092593
        k(  187) = (  -0.4166667  -0.2500000  -0.0833333), wk =   0.0092593
        k(  188) = (  -0.0833333   0.4166667   0.2500000), wk =   0.0092593
        k(  189) = (  -0.0833333  -0.4166667  -0.2500000), wk =   0.0092593
        k(  190) = (  -0.0833333   0.2500000  -0.4166667), wk =   0.0092593
        k(  191) = (  -0.5000000  -0.2500000   0.0833333), wk =   0.0092593
        k(  192) = (  -0.0833333  -0.5000000   0.2500000), wk =   0.0092593
        k(  193) = (  -0.0833333   0.2500000   0.5000000), wk =   0.0046296
        k(  194) = (   0.3333333  -0.3333333   0.0833333), wk =   0.0046296
        k(  195) = (  -0.3333333  -0.3333333  -0.0833333), wk =   0.0046296
        k(  196) = (  -0.0833333   0.3333333   0.3333333), wk =   0.0092593
        k(  197) = (   0.4166667  -0.3333333   0.0833333), wk =   0.0092593
        k(  198) = (  -0.4166667  -0.3333333  -0.0833333), wk =   0.0092593
        k(  199) = (  -0.0833333   0.4166667   0.3333333), wk =   0.0092593
        k(  200) = (  -0.0833333  -0.4166667  -0.3333333), wk =   0.0092593
        k(  201) = (  -0.0833333   0.3333333  -0.4166667), wk =   0.0092593
        k(  202) = (  -0.5000000  -0.3333333   0.0833333), wk =   0.0092593
        k(  203) = (  -0.0833333  -0.5000000   0.3333333), wk =   0.0092593
        k(  204) = (  -0.0833333   0.3333333   0.5000000), wk =   0.0046296
        k(  205) = (   0.4166667  -0.4166667   0.0833333), wk =   0.0046296
        k(  206) = (  -0.4166667  -0.4166667  -0.0833333), wk =   0.0046296
        k(  207) = (  -0.0833333   0.4166667   0.4166667), wk =   0.0092593
        k(  208) = (  -0.5000000  -0.4166667   0.0833333), wk =   0.0092593
        k(  209) = (  -0.0833333  -0.5000000   0.4166667), wk =   0.0092593
        k(  210) = (  -0.0833333   0.4166667   0.5000000), wk =   0.0046296
        k(  211) = (  -0.5000000   0.5000000   0.0833333), wk =   0.0023148
        k(  212) = (   0.1666667  -0.1666667   0.1666667), wk =   0.0046296
        k(  213) = (   0.2500000  -0.1666667   0.1666667), wk =   0.0092593
        k(  214) = (  -0.2500000  -0.1666667  -0.1666667), wk =   0.0092593
        k(  215) = (  -0.1666667   0.1666667  -0.2500000), wk =   0.0046296
        k(  216) = (   0.3333333  -0.1666667   0.1666667), wk =   0.0092593
        k(  217) = (  -0.3333333  -0.1666667  -0.1666667), wk =   0.0092593
        k(  218) = (  -0.1666667   0.1666667  -0.3333333), wk =   0.0046296
        k(  219) = (   0.4166667  -0.1666667   0.1666667), wk =   0.0092593
        k(  220) = (  -0.4166667  -0.1666667  -0.1666667), wk =   0.0092593
        k(  221) = (  -0.1666667   0.1666667  -0.4166667), wk =   0.0046296
        k(  222) = (  -0.5000000  -0.1666667   0.1666667), wk =   0.0092593
        k(  223) = (  -0.1666667   0.1666667   0.5000000), wk =   0.0023148
        k(  224) = (   0.2500000  -0.2500000   0.1666667), wk =   0.0046296
        k(  225) = (  -0.2500000  -0.2500000  -0.1666667), wk =   0.0046296
        k(  226) = (  -0.1666667   0.2500000   0.2500000), wk =   0.0092593
        k(  227) = (   0.3333333  -0.2500000   0.1666667), wk =   0.0092593
        k(  228) = (  -0.3333333  -0.2500000  -0.1666667), wk =   0.0092593
        k(  229) = (  -0.1666667   0.3333333   0.2500000), wk =   0.0092593
        k(  230) = (  -0.1666667  -0.3333333  -0.2500000), wk =   0.0092593
        k(  231) = (  -0.1666667   0.2500000  -0.3333333), wk =   0.0092593
        k(  232) = (   0.4166667  -0.2500000   0.1666667), wk =   0.0092593
        k(  233) = (  -0.4166667  -0.2500000  -0.1666667), wk =   0.0092593
        k(  234) = (  -0.1666667   0.4166667   0.2500000), wk =   0.0092593
        k(  235) = (  -0.1666667  -0.4166667  -0.2500000), wk =   0.0092593
        k(  236) = (  -0.1666667   0.2500000  -0.4166667), wk =   0.0092593
        k(  237) = (  -0.5000000  -0.2500000   0.1666667), wk =   0.0092593
        k(  238) = (  -0.1666667  -0.5000000   0.2500000), wk =   0.0092593
        k(  239) = (  -0.1666667   0.2500000   0.5000000), wk =   0.0046296
        k(  240) = (   0.3333333  -0.3333333   0.1666667), wk =   0.0046296
        k(  241) = (  -0.3333333  -0.3333333  -0.1666667), wk =   0.0046296
        k(  242) = (  -0.1666667   0.3333333   0.3333333), wk =   0.0092593
        k(  243) = (   0.4166667  -0.3333333   0.1666667), wk =   0.0092593
        k(  244) = (  -0.4166667  -0.3333333  -0.1666667), wk =   0.0092593
        k(  245) = (  -0.1666667   0.4166667   0.3333333), wk =   0.0092593
        k(  246) = (  -0.1666667  -0.4166667  -0.3333333), wk =   0.0092593
        k(  247) = (  -0.1666667   0.3333333  -0.4166667), wk =   0.0092593
        k(  248) = (  -0.5000000  -0.3333333   0.1666667), wk =   0.0092593
        k(  249) = (  -0.1666667  -0.5000000   0.3333333), wk =   0.0092593
        k(  250) = (  -0.1666667   0.3333333   0.5000000), wk =   0.0046296
        k(  251) = (   0.4166667  -0.4166667   0.1666667), wk =   0.0046296
        k(  252) = (  -0.4166667  -0.4166667  -0.1666667), wk =   0.0046296
        k(  253) = (  -0.1666667   0.4166667   0.4166667), wk =   0.0092593
        k(  254) = (  -0.5000000  -0.4166667   0.1666667), wk =   0.0092593
        k(  255) = (  -0.1666667  -0.5000000   0.4166667), wk =   0.0092593
        k(  256) = (  -0.1666667   0.4166667   0.5000000), wk =   0.0046296
        k(  257) = (  -0.5000000   0.5000000   0.1666667), wk =   0.0023148
        k(  258) = (   0.2500000  -0.2500000   0.2500000), wk =   0.0046296
        k(  259) = (   0.3333333  -0.2500000   0.2500000), wk =   0.0092593
        k(  260) = (  -0.3333333  -0.2500000  -0.2500000), wk =   0.0092593
        k(  261) = (  -0.2500000   0.2500000  -0.3333333), wk =   0.0046296
        k(  262) = (   0.4166667  -0.2500000   0.2500000), wk =   0.0092593
        k(  263) = (  -0.4166667  -0.2500000  -0.2500000), wk =   0.0092593
        k(  264) = (  -0.2500000   0.2500000  -0.4166667), wk =   0.0046296
        k(  265) = (  -0.5000000  -0.2500000   0.2500000), wk =   0.0092593
        k(  266) = (  -0.2500000   0.2500000   0.5000000), wk =   0.0023148
        k(  267) = (   0.3333333  -0.3333333   0.2500000), wk =   0.0046296
        k(  268) = (  -0.3333333  -0.3333333  -0.2500000), wk =   0.0046296
        k(  269) = (  -0.2500000   0.3333333   0.3333333), wk =   0.0092593
        k(  270) = (   0.4166667  -0.3333333   0.2500000), wk =   0.0092593
        k(  271) = (  -0.4166667  -0.3333333  -0.2500000), wk =   0.0092593
        k(  272) = (  -0.2500000   0.4166667   0.3333333), wk =   0.0092593
        k(  273) = (  -0.2500000  -0.4166667  -0.3333333), wk =   0.0092593
        k(  274) = (  -0.2500000   0.3333333  -0.4166667), wk =   0.0092593
        k(  275) = (  -0.5000000  -0.3333333   0.2500000), wk =   0.0092593
        k(  276) = (  -0.2500000  -0.5000000   0.3333333), wk =   0.0092593
        k(  277) = (  -0.2500000   0.3333333   0.5000000), wk =   0.0046296
        k(  278) = (   0.4166667  -0.4166667   0.2500000), wk =   0.0046296
        k(  279) = (  -0.4166667  -0.4166667  -0.2500000), wk =   0.0046296
        k(  280) = (  -0.2500000   0.4166667   0.4166667), wk =   0.0092593
        k(  281) = (  -0.5000000  -0.4166667   0.2500000), wk =   0.0092593
        k(  282) = (  -0.2500000  -0.5000000   0.4166667), wk =   0.0092593
        k(  283) = (  -0.2500000   0.4166667   0.5000000), wk =   0.0046296
        k(  284) = (  -0.5000000   0.5000000   0.2500000), wk =   0.0023148
        k(  285) = (   0.3333333  -0.3333333   0.3333333), wk =   0.0046296
        k(  286) = (   0.4166667  -0.3333333   0.3333333), wk =   0.0092593
        k(  287) = (  -0.4166667  -0.3333333  -0.3333333), wk =   0.0092593
        k(  288) = (  -0.3333333   0.3333333  -0.4166667), wk =   0.0046296
        k(  289) = (  -0.5000000  -0.3333333   0.3333333), wk =   0.0092593
        k(  290) = (  -0.3333333   0.3333333   0.5000000), wk =   0.0023148
        k(  291) = (   0.4166667  -0.4166667   0.3333333), wk =   0.0046296
        k(  292) = (  -0.4166667  -0.4166667  -0.3333333), wk =   0.0046296
        k(  293) = (  -0.3333333   0.4166667   0.4166667), wk =   0.0092593
        k(  294) = (  -0.5000000  -0.4166667   0.3333333), wk =   0.0092593
        k(  295) = (  -0.3333333  -0.5000000   0.4166667), wk =   0.0092593
        k(  296) = (  -0.3333333   0.4166667   0.5000000), wk =   0.0046296
        k(  297) = (  -0.5000000   0.5000000   0.3333333), wk =   0.0023148
        k(  298) = (   0.4166667  -0.4166667   0.4166667), wk =   0.0046296
        k(  299) = (  -0.5000000  -0.4166667   0.4166667), wk =   0.0092593
        k(  300) = (  -0.4166667   0.4166667   0.5000000), wk =   0.0023148
        k(  301) = (  -0.5000000   0.5000000   0.4166667), wk =   0.0023148

     Dense  grid:    80581 G-vectors     FFT dimensions: (  54,  54,  54)

     Smooth grid:    28425 G-vectors     FFT dimensions: (  40,  40,  40)

     Dynamical RAM for                 wfc:       0.22 MB

     Dynamical RAM for     wfc (w. buffer):      16.72 MB

     Dynamical RAM for           str. fact:       0.61 MB

     Dynamical RAM for           local pot:       0.00 MB

     Dynamical RAM for          nlocal pot:       0.63 MB

     Dynamical RAM for                qrad:       2.26 MB

     Dynamical RAM for          rho,v,vnew:       1.22 MB

     Dynamical RAM for               rhoin:       0.41 MB

     Dynamical RAM for            rho*nmix:       3.28 MB

     Dynamical RAM for           G-vectors:       0.80 MB

     Dynamical RAM for          h,s,v(r/c):       0.11 MB

     Dynamical RAM for          <psi|beta>:       0.03 MB

     Dynamical RAM for                 psi:       0.43 MB

     Dynamical RAM for                hpsi:       0.43 MB

     Dynamical RAM for                spsi:       0.43 MB

     Dynamical RAM for      wfcinit/wfcrot:       0.70 MB

     Dynamical RAM for           addusdens:       3.02 MB

     Dynamical RAM for          addusforce:       3.28 MB

     Dynamical RAM for         addusstress:       3.10 MB

     Estimated static dynamical RAM per process >      27.75 MB

     Estimated max dynamical RAM per process >      31.04 MB

     Estimated total dynamical RAM >     744.87 MB

     Initial potential from superposition of free atoms

     starting charge   39.19702, renormalised to   40.00000
     Starting wfcs are   37 randomized atomic wfcs

     total cpu time spent up to now is        1.7 secs

     Self-consistent Calculation

     iteration #  1     ecut=    60.00 Ry     beta= 0.30
     Davidson diagonalization with overlap
     ethr =  1.00E-02,  avg # of iterations =  2.0

     Threshold (ethr) on eigenvalues was too large:
     Diagonalizing with lowered threshold

     Davidson diagonalization with overlap
     ethr =  4.38E-04,  avg # of iterations =  2.0

     total cpu time spent up to now is        5.7 secs

     total energy              =    -254.70604820 Ry
     estimated scf accuracy    <       0.16686727 Ry

     iteration #  2     ecut=    60.00 Ry     beta= 0.30
     Davidson diagonalization with overlap
     ethr =  4.17E-04,  avg # of iterations =  2.2

     total cpu time spent up to now is        7.7 secs

     total energy              =    -254.71277616 Ry
     estimated scf accuracy    <       0.03781138 Ry

     iteration #  3     ecut=    60.00 Ry     beta= 0.30
     Davidson diagonalization with overlap
     ethr =  9.45E-05,  avg # of iterations =  3.3

     total cpu time spent up to now is        9.9 secs

     total energy              =    -254.71109982 Ry
     estimated scf accuracy    <       0.01095910 Ry

     iteration #  4     ecut=    60.00 Ry     beta= 0.30
     Davidson diagonalization with overlap
     ethr =  2.74E-05,  avg # of iterations =  4.0

     total cpu time spent up to now is       12.4 secs

     total energy              =    -254.71235426 Ry
     estimated scf accuracy    <       0.00037290 Ry

     iteration #  5     ecut=    60.00 Ry     beta= 0.30
     Davidson diagonalization with overlap
     ethr =  9.32E-07,  avg # of iterations =  6.4

     total cpu time spent up to now is       15.8 secs

     total energy              =    -254.71251444 Ry
     estimated scf accuracy    <       0.00006276 Ry

     iteration #  6     ecut=    60.00 Ry     beta= 0.30
     Davidson diagonalization with overlap
     ethr =  1.57E-07,  avg # of iterations =  2.0

     total cpu time spent up to now is       17.9 secs

     total energy              =    -254.71252803 Ry
     estimated scf accuracy    <       0.00001290 Ry

     iteration #  7     ecut=    60.00 Ry     beta= 0.30
     Davidson diagonalization with overlap
     ethr =  3.23E-08,  avg # of iterations =  2.0

     total cpu time spent up to now is       20.1 secs

     total energy              =    -254.71253132 Ry
     estimated scf accuracy    <       0.00000211 Ry

     iteration #  8     ecut=    60.00 Ry     beta= 0.30
     Davidson diagonalization with overlap
     ethr =  5.27E-09,  avg # of iterations =  2.0

     total cpu time spent up to now is       22.3 secs

     End of self-consistent calculation

          k = 0.0000 0.0000 0.0000 (  3575 PWs)   bands (ev):

   -40.4927 -40.4498 -38.9807 -38.9485 -20.5403 -20.0619 -17.8366 -17.5503
    -5.0993  -2.5770  -2.4967  -1.8315  -1.3033  -1.1270  -0.0090   0.1666
     0.6005   0.8222   1.3159   1.3159   5.8510  11.5730  14.9089  15.5231

     occupation numbers 
     1.0000   1.0000   1.0000   1.0000   1.0000   1.0000   1.0000   1.0000
     1.0000   1.0000   1.0000   1.0000   1.0000   1.0000   1.0000   1.0000
     1.0000   1.0000   1.0820   1.0820   0.0000   0.0000   0.0000   0.0000

          k = 0.0000 0.0000 0.0833 (  3595 PWs)   bands (ev):

   -40.4926 -40.4498 -38.9807 -38.9485 -20.5400 -20.0634 -17.8420 -17.5520
    -5.0909  -2.5607  -2.4534  -1.8278  -1.2929  -1.1217  -0.0286   0.1426
     0.6133   0.7826   1.3096   1.3112   5.8872  11.5823  14.8077  15.5198

     occupation numbers 
     1.0000   1.0000   1.0000   1.0000   1.0000   1.0000   1.0000   1.0000
     1.0000   1.0000   1.0000   1.0000   1.0000   1.0000   1.0000   1.0000
     1.0000   1.0000   1.0801   1.0806   0.0000   0.0000   0.0000   0.0000

          k = 0.0000 0.0000 0.1667 (  3579 PWs)   bands (ev):

   -40.4923 -40.4496 -38.9806 -38.9482 -20.5392 -20.0674 -17.8566 -17.5565
    -5.0676  -2.5148  -2.3300  -1.8176  -1.2644  -1.1072  -0.0822   0.0755
     0.6484   0.6698   1.2922   1.2983   5.9865  11.6153  14.5423  15.5104

     occupation numbers 
     1.0000   1.0000   1.0000   1.0000   1.0000   1.0000   1.0000   1.0000
     1.0000   1.0000   1.0000   1.0000   1.0000   1.0000   1.0000   1.0000
     1.0000   1.0000   1.0716   1.0750   0.0000   0.0000   0.0000   0.0000

          k = 0.0000 0.0000 0.2500 (  3575 PWs)   bands (ev):

   -40.4919 -40.4494 -38.9804 -38.9479 -20.5381 -20.0729 -17.8765 -17.5627
    -5.0351  -2.4483  -2.1459  -1.8035  -1.2252  -1.0871  -0.1559  -0.0198
     0.5020   0.6966   1.2681   1.2804   6.1226  11.6840  14.1759  15.4966

     occupation numbers 
     1.0000   1.0000   1.0000   1.0000   1.0000   1.0000   1.0000   1.0000
     1.0000   1.0000   1.0000   1.0000   1.0000   1.0000   1.0000   1.0000
     1.0000   1.0000   1.0558   1.0642   0.0000   0.0000   0.0000   0.0000

          k = 0.0000 0.0000 0.3333 (  3555 PWs)   bands (ev):

   -40.4915 -40.4492 -38.9803 -38.9476 -20.5370 -20.0783 -17.8963 -17.5689
    -5.0017  -2.3764  -1.9365  -1.7892  -1.1858  -1.0665  -0.2299  -0.1203
     0.3103   0.7453   1.2435   1.2624   6.2596  11.7961  13.7736  15.4816

     occupation numbers 
     1.0000   1.0000   1.0000   1.0000   1.0000   1.0000   1.0000   1.0000
     1.0000   1.0000   1.0000   1.0000   1.0000   1.0000   1.0000   1.0000
     1.0000   1.0000   1.0392   1.0518   0.0000   0.0000   0.0000   0.0000

          k = 0.0000 0.0000 0.4167 (  3555 PWs)   bands (ev):

   -40.4912 -40.4491 -38.9802 -38.9474 -20.5361 -20.0823 -17.9107 -17.5734
    -4.9767  -2.3196  -1.7786  -1.7580  -1.1569  -1.0512  -0.2844  -0.1979
     0.1458   0.7812   1.2251   1.2491   6.3607  11.9308  13.4279  15.4693

     occupation numbers 
     1.0000   1.0000   1.0000   1.0000   1.0000   1.0000   1.0000   1.0000
     1.0000   1.0000   1.0000   1.0000   1.0000   1.0000   1.0000   1.0000
     1.0000   1.0000   1.0285   1.0428   0.0000   0.0000   0.0000   0.0000

          k = 0.0000 0.0000-0.5000 (  3546 PWs)   bands (ev):

   -40.4911 -40.4490 -38.9801 -38.9473 -20.5358 -20.0838 -17.9160 -17.5751
    -4.9674  -2.2978  -1.7747  -1.6847  -1.1462  -1.0455  -0.3044  -0.2273
     0.0778   0.7944   1.2183   1.2442   6.3978  12.0021  13.2795  15.4645

     occupation numbers 
     1.0000   1.0000   1.0000   1.0000   1.0000   1.0000   1.0000   1.0000
     1.0000   1.0000   1.0000   1.0000   1.0000   1.0000   1.0000   1.0000
     1.0000   1.0000   1.0251   1.0397   0.0000   0.0000   0.0000   0.0000

          k = 0.0000 0.0833 0.0833 (  3591 PWs)   bands (ev):

   -40.4918 -40.4504 -38.9801 -38.9489 -20.5349 -20.0721 -17.8395 -17.5598
    -5.0577  -2.5285  -2.4311  -1.8582  -1.3042  -1.1358  -0.0038   0.1618
     0.6031   0.7702   1.2848   1.2882   5.9205  11.6063  14.8032  15.4169

     occupation numbers 
     1.0000   1.0000   1.0000   1.0000   1.0000   1.0000   1.0000   1.0000
     1.0000   1.0000   1.0000   1.0000   1.0000   1.0000   1.0000   1.0000
     1.0000   1.0000   1.0670   1.0692   0.0000   0.0000   0.0000   0.0000

          k = 0.0000 0.0833 0.1667 (  3582 PWs)   bands (ev):

   -40.4915 -40.4502 -38.9800 -38.9487 -20.5343 -20.0761 -17.8538 -17.5643
    -5.0356  -2.4845  -2.3127  -1.8471  -1.2796  -1.1221  -0.0539   0.0982
     0.6415   0.6604   1.2693   1.2828   6.0123  11.6370  14.5274  15.4090

     occupation numbers 
     1.0000   1.0000   1.0000   1.0000   1.0000   1.0000   1.0000   1.0000
     1.0000   1.0000   1.0000   1.0000   1.0000   1.0000   1.0000   1.0000
     1.0000   1.0000   1.0566   1.0657   0.0000   0.0000   0.0000   0.0000

          k = 0.0000 0.0833 0.2500 (  3579 PWs)   bands (ev):

   -40.4911 -40.4500 -38.9798 -38.9484 -20.5334 -20.0816 -17.8733 -17.5705
    -5.0047  -2.4207  -2.1374  -1.8310  -1.2469  -1.1040  -0.1221   0.0096
     0.5025   0.6939   1.2466   1.2712   6.1388  11.7022  14.1550  15.3952

     occupation numbers 
     1.0000   1.0000   1.0000   1.0000   1.0000   1.0000   1.0000   1.0000
     1.0000   1.0000   1.0000   1.0000   1.0000   1.0000   1.0000   1.0000
     1.0000   1.0000   1.0412   1.0579   0.0000   0.0000   0.0000   0.0000

          k = 0.0000 0.0833 0.3333 (  3559 PWs)   bands (ev):

   -40.4907 -40.4498 -38.9797 -38.9481 -20.5324 -20.0870 -17.8926 -17.5766
    -4.9730  -2.3518  -1.9435  -1.8103  -1.2158  -1.0872  -0.1909  -0.0813
     0.3284   0.7456   1.2231   1.2560   6.2669  11.8104  13.7501  15.3788

     occupation numbers 
     1.0000   1.0000   1.0000   1.0000   1.0000   1.0000   1.0000   1.0000
     1.0000   1.0000   1.0000   1.0000   1.0000   1.0000   1.0000   1.0000
     1.0000   1.0000   1.0274   1.0474   0.0000   0.0000   0.0000   0.0000

          k = 0.0000 0.0833 0.4167 (  3552 PWs)   bands (ev):

   -40.4904 -40.4497 -38.9796 -38.9479 -20.5317 -20.0910 -17.9068 -17.5811
    -4.9493  -2.2975  -1.8281  -1.7455  -1.1943  -1.0774  -0.2426  -0.1488
     0.1831   0.7835   1.2052   1.2433   6.3618  11.9424  13.4031  15.3652

     occupation numbers 
     1.0000   1.0000   1.0000   1.0000   1.0000   1.0000   1.0000   1.0000
     1.0000   1.0000   1.0000   1.0000   1.0000   1.0000   1.0000   1.0000
     1.0000   1.0000   1.0192   1.0391   0.0000   0.0000   0.0000   0.0000

          k = 0.0000 0.0833-0.5000 (  3538 PWs)   bands (ev):

   -40.4903 -40.4496 -38.9795 -38.9478 -20.5315 -20.0924 -17.9120 -17.5828
    -4.9405  -2.2767  -1.8151  -1.6853  -1.1868  -1.0751  -0.2621  -0.1735
     0.1242   0.7973   1.1986   1.2384   6.3968  12.0130  13.2541  15.3598

     occupation numbers 
     1.0000   1.0000   1.0000   1.0000   1.0000   1.0000   1.0000   1.0000
     1.0000   1.0000   1.0000   1.0000   1.0000   1.0000   1.0000   1.0000
     1.0000   1.0000   1.0166   1.0361   0.0000   0.0000   0.0000   0.0000

          k = 0.0000 0.1667 0.1667 (  3595 PWs)   bands (ev):

   -40.4893 -40.4520 -38.9782 -38.9502 -20.5198 -20.1010 -17.8453 -17.5865
    -4.9449  -2.3963  -2.2633  -1.9309  -1.3244  -1.1666   0.0251   0.1657
     0.6235   0.6370   1.1975   1.2397   6.0833  11.7044  14.4695  15.1344

     occupation numbers 
     1.0000   1.0000   1.0000   1.0000   1.0000   1.0000   1.0000   1.0000
     1.0000   1.0000   1.0000   1.0000   1.0000   1.0000   1.0000   1.0000
     1.0000   1.0000   1.0162   1.0369   0.0000   0.0000   0.0000   0.0000

          k = 0.0000 0.1667 0.2500 (  3567 PWs)   bands (ev):

   -40.4889 -40.4518 -38.9780 -38.9499 -20.5194 -20.1064 -17.8635 -17.5926
    -4.9187  -2.3405  -2.1188  -1.9029  -1.3053  -1.1544  -0.0355   0.1005
     0.5076   0.6864   1.1727   1.2500   6.1839  11.7600  14.0842  15.1169

     occupation numbers 
     1.0000   1.0000   1.0000   1.0000   1.0000   1.0000   1.0000   1.0000
     1.0000   1.0000   1.0000   1.0000   1.0000   1.0000   1.0000   1.0000
     1.0000   1.0000   1.0090   1.0434   0.0000   0.0000   0.0000   0.0000

          k = 0.0000 0.1667 0.3333 (  3565 PWs)   bands (ev):

   -40.4885 -40.4516 -38.9779 -38.9496 -20.5191 -20.1117 -17.8816 -17.5988
    -4.8918  -2.2805  -1.9892  -1.8419  -1.2897  -1.1476  -0.1033   0.0438
     0.3796   0.7460   1.1471   1.2478   6.2875  11.8574  13.6770  15.0923

     occupation numbers 
     1.0000   1.0000   1.0000   1.0000   1.0000   1.0000   1.0000   1.0000
     1.0000   1.0000   1.0000   1.0000   1.0000   1.0000   1.0000   1.0000
     1.0000   1.0000   1.0045   1.0420   0.0000   0.0000   0.0000   0.0000

          k = 0.0000 0.1667 0.4167 (  3564 PWs)   bands (ev):

   -40.4882 -40.4515 -38.9777 -38.9493 -20.5188 -20.1156 -17.8949 -17.6033
    -4.8717  -2.2333  -1.9359  -1.7377  -1.2807  -1.1504  -0.1586   0.0081
     0.2813   0.7891   1.1279   1.2405   6.3654  11.9816  13.3298  15.0752

     occupation numbers 
     1.0000   1.0000   1.0000   1.0000   1.0000   1.0000   1.0000   1.0000
     1.0000   1.0000   1.0000   1.0000   1.0000   1.0000   1.0000   1.0000
     1.0000   1.0000   1.0026   1.0373   0.0000   0.0000   0.0000   0.0000

          k = 0.0000 0.1667-0.5000 (  3574 PWs)   bands (ev):

   -40.4881 -40.4514 -38.9777 -38.9492 -20.5187 -20.1170 -17.8997 -17.6049
    -4.8643  -2.2152  -1.9241  -1.6859  -1.2779  -1.1548  -0.1800  -0.0038
     0.2437   0.8048   1.1208   1.2368   6.3943  12.0502  13.1799  15.0840

     occupation numbers 
     1.0000   1.0000   1.0000   1.0000   1.0000   1.0000   1.0000   1.0000
     1.0000   1.0000   1.0000   1.0000   1.0000   1.0000   1.0000   1.0000
     1.0000   1.0000   1.0021   1.0351   0.0000   0.0000   0.0000   0.0000

          k = 0.0000 0.2500 0.2500 (  3585 PWs)   bands (ev):

   -40.4854 -40.4546 -38.9752 -38.9522 -20.4971 -20.1434 -17.8467 -17.6262
    -4.7931  -2.2155  -2.1394  -1.9562  -1.3881  -1.2385   0.0812   0.2492
     0.5230   0.6756   1.0556   1.2020   6.2475  11.8659  13.9284  14.7713

     occupation numbers 
     1.0000   1.0000   1.0000   1.0000   1.0000   1.0000   1.0000   1.0000
     1.0000   1.0000   1.0000   1.0000   1.0000   1.0000   1.0000   1.0000
     1.0000   1.0000   1.0002   1.0179   0.0000   0.0000   0.0000   0.0000

          k = 0.0000 0.2500 0.3333 (  3569 PWs)   bands (ev):

   -40.4851 -40.4544 -38.9750 -38.9519 -20.4977 -20.1485 -17.8630 -17.6326
    -4.7734  -2.1692  -2.1009  -1.8365  -1.3819  -1.2435   0.0112   0.2361
     0.4542   0.7447   1.0253   1.2200   6.3173  11.9477  13.5429  14.6663

     occupation numbers 
     1.0000   1.0000   1.0000   1.0000   1.0000   1.0000   1.0000   1.0000
     1.0000   1.0000   1.0000   1.0000   1.0000   1.0000   1.0000   1.0000
     1.0000   1.0000   1.0001   1.0259   0.0000   0.0000   0.0000   0.0000

          k = 0.0000 0.2500 0.4167 (  3559 PWs)   bands (ev):

   -40.4848 -40.4543 -38.9749 -38.9517 -20.4980 -20.1523 -17.8749 -17.6372
    -4.7588  -2.1336  -2.0790  -1.7284  -1.3787  -1.2583  -0.0446   0.2317
     0.4107   0.7946   1.0025   1.2234   6.3709  12.0595  13.2115  14.5254

     occupation numbers 
     1.0000   1.0000   1.0000   1.0000   1.0000   1.0000   1.0000   1.0000
     1.0000   1.0000   1.0000   1.0000   1.0000   1.0000   1.0000   1.0000
     1.0000   1.0000   1.0000   1.0276   0.0000   0.0000   0.0000   0.0000

          k = 0.0000 0.2500-0.5000 (  3552 PWs)   bands (ev):

   -40.4847 -40.4542 -38.9748 -38.9516 -20.4982 -20.1536 -17.8792 -17.6389
    -4.7533  -2.1203  -2.0713  -1.6834  -1.3775  -1.2684  -0.0658   0.2310
     0.3960   0.8128   0.9940   1.2227   6.3910  12.1248  13.0656  14.4683

     occupation numbers 
     1.0000   1.0000   1.0000   1.0000   1.0000   1.0000   1.0000   1.0000
     1.0000   1.0000   1.0000   1.0000   1.0000   1.0000   1.0000   1.0000
     1.0000   1.0000   1.0000   1.0273   0.0000   0.0000   0.0000   0.0000

          k = 0.0000 0.3333 0.3333 (  3564 PWs)   bands (ev):

   -40.4808 -40.4581 -38.9714 -38.9551 -20.4706 -20.1910 -17.8366 -17.6740
    -4.6439  -2.2380  -2.0280  -1.8038  -1.4758  -1.3679   0.1537   0.4562
     0.5376   0.7385   0.8696   1.1552   6.3491  12.0945  13.3237  14.2509

     occupation numbers 
     1.0000   1.0000   1.0000   1.0000   1.0000   1.0000   1.0000   1.0000
     1.0000   1.0000   1.0000   1.0000   1.0000   1.0000   1.0000   1.0000
     1.0000   1.0000   1.0000   1.0057   0.0000   0.0000   0.0000   0.0000

          k = 0.0000 0.3333 0.4167 (  3553 PWs)   bands (ev):

   -40.4806 -40.4579 -38.9713 -38.9548 -20.4717 -20.1944 -17.8469 -17.6791
    -4.6353  -2.2295  -2.0043  -1.7122  -1.4688  -1.3892   0.1016   0.4762
     0.5411   0.7936   0.8415   1.1721   6.3774  12.1905  13.0558  13.9868

     occupation numbers 
     1.0000   1.0000   1.0000   1.0000   1.0000   1.0000   1.0000   1.0000
     1.0000   1.0000   1.0000   1.0000   1.0000   1.0000   1.0000   1.0000
     1.0000   1.0000   1.0000   1.0089   0.0000   0.0000   0.0000   0.0000

          k = 0.0000 0.3333-0.5000 (  3558 PWs)   bands (ev):

   -40.4805 -40.4579 -38.9712 -38.9548 -20.4721 -20.1957 -17.8506 -17.6809
    -4.6322  -2.2262  -1.9950  -1.6744  -1.4651  -1.4029   0.0821   0.4840
     0.5450   0.8139   0.8309   1.1758   6.3882  12.2497  12.9340  13.8921

     occupation numbers 
     1.0000   1.0000   1.0000   1.0000   1.0000   1.0000   1.0000   1.0000
     1.0000   1.0000   1.0000   1.0000   1.0000   1.0000   1.0000   1.0000
     1.0000   1.0000   1.0000   1.0097   0.0000   0.0000   0.0000   0.0000

          k = 0.0000 0.4167 0.4167 (  3556 PWs)   bands (ev):

   -40.4762 -40.4618 -38.9671 -38.9586 -20.4460 -20.2317 -17.8115 -17.7246
    -4.5362  -2.3450  -1.8601  -1.6894  -1.5489  -1.5236   0.2737   0.6422
     0.6648   0.7087   0.7807   1.0721   6.3829  12.3836  12.8643  13.5947

     occupation numbers 
     1.0000   1.0000   1.0000   1.0000   1.0000   1.0000   1.0000   1.0000
     1.0000   1.0000   1.0000   1.0000   1.0000   1.0000   1.0000   1.0000
     1.0000   1.0000   1.0000   1.0004   0.0000   0.0000   0.0000   0.0000

          k = 0.0000 0.4167-0.5000 (  3554 PWs)   bands (ev):

   -40.4761 -40.4618 -38.9670 -38.9585 -20.4467 -20.2328 -17.8147 -17.7267
    -4.5350  -2.3432  -1.8552  -1.6578  -1.5486  -1.5316   0.2564   0.6445
     0.6664   0.7246   0.7980   1.0801   6.3866  12.4216  12.8256  13.4262

     occupation numbers 
     1.0000   1.0000   1.0000   1.0000   1.0000   1.0000   1.0000   1.0000
     1.0000   1.0000   1.0000   1.0000   1.0000   1.0000   1.0000   1.0000
     1.0000   1.0000   1.0000   1.0005   0.0000   0.0000   0.0000   0.0000

          k = 0.0000-0.5000-0.5000 (  3556 PWs)   bands (ev):

   -40.4737 -40.4640 -38.9629 -38.9626 -20.4348 -20.2490 -17.7760 -17.7690
    -4.4971  -2.3878  -1.7296  -1.6760  -1.6451  -1.5613   0.4324   0.4644
     0.7384   0.7639   0.9250   0.9314   6.3861  12.5387  12.7831  13.2073

     occupation numbers 
     1.0000   1.0000   1.0000   1.0000   1.0000   1.0000   1.0000   1.0000
     1.0000   1.0000   1.0000   1.0000   1.0000   1.0000   1.0000   1.0000
     1.0000   1.0000   1.0000   1.0000   0.0000   0.0000   0.0000   0.0000

          k = 0.0833 0.0833 0.0833 (  3596 PWs)   bands (ev):

   -40.4913 -40.4507 -38.9795 -38.9494 -20.5269 -20.0844 -17.8373 -17.5672
    -4.9904  -2.5285  -2.4093  -1.9570  -1.3167  -1.0993  -0.0157   0.2132
     0.5949   0.7573   1.2105   1.3201   6.0094  11.5748  14.7998  15.3496

     occupation numbers 
     1.0000   1.0000   1.0000   1.0000   1.0000   1.0000   1.0000   1.0000
     1.0000   1.0000   1.0000   1.0000   1.0000   1.0000   1.0000   1.0000
     1.0000   1.0000   1.0214   1.0828   0.0000   0.0000   0.0000   0.0000

          k = 0.0833 0.0833 0.1667 (  3590 PWs)   bands (ev):

   -40.4910 -40.4506 -38.9794 -38.9492 -20.5264 -20.0883 -17.8513 -17.5717
    -4.9685  -2.4889  -2.3003  -1.9403  -1.2972  -1.0855  -0.0567   0.1478
     0.6385   0.6508   1.2145   1.3040   6.0940  11.5999  14.5025  15.3624

     occupation numbers 
     1.0000   1.0000   1.0000   1.0000   1.0000   1.0000   1.0000   1.0000
     1.0000   1.0000   1.0000   1.0000   1.0000   1.0000   1.0000   1.0000
     1.0000   1.0000   1.0232   1.0778   0.0000   0.0000   0.0000   0.0000

          k = 0.0833 0.0833 0.2500 (  3571 PWs)   bands (ev):

   -40.4906 -40.4504 -38.9792 -38.9489 -20.5257 -20.0937 -17.8703 -17.5778
    -4.9379  -2.4318  -2.1468  -1.9098  -1.2724  -1.0664  -0.1110   0.0590
     0.5041   0.6950   1.2094   1.2816   6.2112  11.6608  14.0952  15.3881

     occupation numbers 
     1.0000   1.0000   1.0000   1.0000   1.0000   1.0000   1.0000   1.0000
     1.0000   1.0000   1.0000   1.0000   1.0000   1.0000   1.0000   1.0000
     1.0000   1.0000   1.0209   1.0650   0.0000   0.0000   0.0000   0.0000

          k = 0.0833 0.0833 0.3333 (  3570 PWs)   bands (ev):

   -40.4902 -40.4502 -38.9791 -38.9486 -20.5249 -20.0991 -17.8893 -17.5839
    -4.9064  -2.3709  -2.0089  -1.8447  -1.2501  -1.0468  -0.1631  -0.0317
     0.3464   0.7500   1.1968   1.2588   6.3303  11.7717  13.6517  15.4322

     occupation numbers 
     1.0000   1.0000   1.0000   1.0000   1.0000   1.0000   1.0000   1.0000
     1.0000   1.0000   1.0000   1.0000   1.0000   1.0000   1.0000   1.0000
     1.0000   1.0000   1.0160   1.0494   0.0000   0.0000   0.0000   0.0000

          k = 0.0833 0.0833 0.4167 (  3555 PWs)   bands (ev):

   -40.4899 -40.4501 -38.9789 -38.9483 -20.5244 -20.1031 -17.9032 -17.5884
    -4.8829  -2.3234  -1.9505  -1.7373  -1.2358  -1.0322  -0.1994  -0.1002
     0.2169   0.7899   1.1843   1.2418   6.4188  11.9179  13.2676  15.4965

     occupation numbers 
     1.0000   1.0000   1.0000   1.0000   1.0000   1.0000   1.0000   1.0000
     1.0000   1.0000   1.0000   1.0000   1.0000   1.0000   1.0000   1.0000
     1.0000   1.0000   1.0120   1.0382   0.0000   0.0000   0.0000   0.0000

          k = 0.0833 0.0833-0.5000 (  3548 PWs)   bands (ev):

   -40.4898 -40.4500 -38.9789 -38.9483 -20.5242 -20.1045 -17.9082 -17.5901
    -4.8741  -2.3053  -1.9372  -1.6848  -1.2309  -1.0268  -0.2122  -0.1258
     0.1650   0.8044   1.1792   1.2355   6.4514  12.0018  13.0976  15.7969

     occupation numbers 
     1.0000   1.0000   1.0000   1.0000   1.0000   1.0000   1.0000   1.0000
     1.0000   1.0000   1.0000   1.0000   1.0000   1.0000   1.0000   1.0000
     1.0000   1.0000   1.0106   1.0344   0.0000   0.0000   0.0000   0.0000

          k = 0.0833 0.1667 0.1667 (  3587 PWs)   bands (ev):

   -40.4890 -40.4521 -38.9777 -38.9506 -20.5096 -20.1157 -17.8434 -17.5931
    -4.8511  -2.4364  -2.2720  -2.0477  -1.3418  -1.0815  -0.0098   0.2394
     0.6215   0.6260   1.1213   1.2946   6.1974  11.6077  14.4451  15.1115

     occupation numbers 
     1.0000   1.0000   1.0000   1.0000   1.0000   1.0000   1.0000   1.0000
     1.0000   1.0000   1.0000   1.0000   1.0000   1.0000   1.0000   1.0000
     1.0000   1.0000   1.0021   1.0730   0.0000   0.0000   0.0000   0.0000

          k = 0.0833 0.1667 0.2500 (  3571 PWs)   bands (ev):

   -40.4886 -40.4519 -38.9775 -38.9503 -20.5094 -20.1210 -17.8612 -17.5992
    -4.8243  -2.3909  -2.1889  -1.9651  -1.3313  -1.0656  -0.0465   0.1651
     0.5034   0.6921   1.1264   1.2809   6.2893  11.6570  14.0005  15.1194

     occupation numbers 
     1.0000   1.0000   1.0000   1.0000   1.0000   1.0000   1.0000   1.0000
     1.0000   1.0000   1.0000   1.0000   1.0000   1.0000   1.0000   1.0000
     1.0000   1.0000   1.0025   1.0645   0.0000   0.0000   0.0000   0.0000

          k = 0.0833 0.1667 0.3333 (  3570 PWs)   bands (ev):

   -40.4882 -40.4517 -38.9773 -38.9500 -20.5093 -20.1263 -17.8789 -17.6053
[...]
     1.0000   1.0000   1.0147   0.8184   0.0000   0.0000   0.0000   0.0000

          k =-0.4167-0.3333-0.3333 (  3566 PWs)   bands (ev):

   -40.4747 -40.4618 -38.9644 -38.9603 -20.4346 -20.2747 -17.8037 -17.7578
    -4.6293  -2.3312  -1.9751  -1.7572  -1.7141  -0.8406   0.3145   0.4088
     0.7322   0.7660   1.2357   1.4116   5.8321  11.5874  12.3644  12.7979

     occupation numbers 
     1.0000   1.0000   1.0000   1.0000   1.0000   1.0000   1.0000   1.0000
     1.0000   1.0000   1.0000   1.0000   1.0000   1.0000   1.0000   1.0000
     1.0000   1.0000   1.0345   0.9415   0.0000   0.0000   0.0000   0.0000

          k =-0.3333 0.3333-0.4167 (  3566 PWs)   bands (ev):

   -40.4730 -40.4637 -38.9665 -38.9581 -20.4752 -20.2288 -17.8214 -17.7413
    -4.8378  -2.1250  -1.7907  -1.6762  -1.6106  -1.1877   0.3783   0.5390
     0.7784   0.7992   0.9892   1.4437   5.6243  12.1111  12.3790  12.4760

     occupation numbers 
     1.0000   1.0000   1.0000   1.0000   1.0000   1.0000   1.0000   1.0000
     1.0000   1.0000   1.0000   1.0000   1.0000   1.0000   1.0000   1.0000
     1.0000   1.0000   1.0000   0.8023   0.0000   0.0000   0.0000   0.0000

          k =-0.5000-0.3333 0.3333 (  3562 PWs)   bands (ev):

   -40.4726 -40.4637 -38.9624 -38.9622 -20.4461 -20.2656 -17.7852 -17.7801
    -4.7128  -2.2831  -1.8206  -1.7312  -1.7163  -0.9092   0.3487   0.3940
     0.7057   0.7785   1.3344   1.3683   5.6747  11.7906  12.2931  12.5681

     occupation numbers 
     1.0000   1.0000   1.0000   1.0000   1.0000   1.0000   1.0000   1.0000
     1.0000   1.0000   1.0000   1.0000   1.0000   1.0000   1.0000   1.0000
     1.0000   1.0000   1.0824   1.0539   0.0000   0.0000   0.0000   0.0000

          k =-0.3333 0.3333 0.5000 (  3562 PWs)   bands (ev):

   -40.4729 -40.4636 -38.9664 -38.9580 -20.4762 -20.2302 -17.8239 -17.7427
    -4.8427  -2.1258  -1.8015  -1.6818  -1.6091  -1.1838   0.3997   0.6385
     0.7501   0.8257   0.9752   1.4433   5.6141  12.0327  12.3159  12.4514

     occupation numbers 
     1.0000   1.0000   1.0000   1.0000   1.0000   1.0000   1.0000   1.0000
     1.0000   1.0000   1.0000   1.0000   1.0000   1.0000   1.0000   1.0000
     1.0000   1.0000   1.0000   0.8041   0.0000   0.0000   0.0000   0.0000

          k = 0.4167-0.4167 0.3333 (  3555 PWs)   bands (ev):

   -40.4715 -40.4645 -38.9634 -38.9610 -20.4568 -20.2597 -17.7943 -17.7771
    -4.7831  -2.2863  -1.8121  -1.7253  -1.5702  -0.8869   0.3574   0.3852
     0.6862   0.7853   1.3456   1.4906   5.4935  11.9862  12.0034  12.3691

     occupation numbers 
     1.0000   1.0000   1.0000   1.0000   1.0000   1.0000   1.0000   1.0000
     1.0000   1.0000   1.0000   1.0000   1.0000   1.0000   1.0000   1.0000
     1.0000   1.0000   1.0778   0.5501   0.0000   0.0000   0.0000   0.0000

          k =-0.4167-0.4167-0.3333 (  3555 PWs)   bands (ev):

   -40.4734 -40.4626 -38.9632 -38.9612 -20.4413 -20.2763 -17.7987 -17.7726
    -4.6996  -2.3492  -1.8376  -1.7417  -1.7142  -0.7827   0.3356   0.4029
     0.7094   0.7736   1.3813   1.4619   5.6236  11.5942  12.1250  12.5583

     occupation numbers 
     1.0000   1.0000   1.0000   1.0000   1.0000   1.0000   1.0000   1.0000
     1.0000   1.0000   1.0000   1.0000   1.0000   1.0000   1.0000   1.0000
     1.0000   1.0000   1.0297   0.7082   0.0000   0.0000   0.0000   0.0000

          k =-0.3333 0.4167 0.4167 (  3555 PWs)   bands (ev):

   -40.4716 -40.4646 -38.9643 -38.9599 -20.4637 -20.2506 -17.8055 -17.7660
    -4.7999  -2.2343  -1.8150  -1.7189  -1.6356  -1.0214   0.4400   0.5106
     0.7853   0.8313   1.1845   1.4411   5.5623  11.9450  12.0846  12.3342

     occupation numbers 
     1.0000   1.0000   1.0000   1.0000   1.0000   1.0000   1.0000   1.0000
     1.0000   1.0000   1.0000   1.0000   1.0000   1.0000   1.0000   1.0000
     1.0000   1.0000   1.0120   0.8150   0.0000   0.0000   0.0000   0.0000

          k =-0.5000-0.4167 0.3333 (  3550 PWs)   bands (ev):

   -40.4722 -40.4636 -38.9622 -38.9620 -20.4496 -20.2705 -17.7900 -17.7849
    -4.7540  -2.3335  -1.8213  -1.7418  -1.6065  -0.7995   0.3499   0.3993
     0.6920   0.7799   1.4400   1.4709   5.4989  11.7313  11.9956  12.4105

     occupation numbers 
     1.0000   1.0000   1.0000   1.0000   1.0000   1.0000   1.0000   1.0000
     1.0000   1.0000   1.0000   1.0000   1.0000   1.0000   1.0000   1.0000
     1.0000   1.0000   0.8201   0.6589   0.0000   0.0000   0.0000   0.0000

          k =-0.3333-0.5000 0.4167 (  3550 PWs)   bands (ev):

   -40.4724 -40.4636 -38.9622 -38.9619 -20.4495 -20.2692 -17.7900 -17.7848
    -4.7326  -2.3143  -1.8275  -1.7478  -1.7400  -0.8999   0.4629   0.4961
     0.7792   0.8615   1.3335   1.3666   5.6203  11.7074  11.9707  12.4116

     occupation numbers 
     1.0000   1.0000   1.0000   1.0000   1.0000   1.0000   1.0000   1.0000
     1.0000   1.0000   1.0000   1.0000   1.0000   1.0000   1.0000   1.0000
     1.0000   1.0000   1.0826   1.0564   0.0000   0.0000   0.0000   0.0000

          k =-0.3333 0.4167 0.5000 (  3550 PWs)   bands (ev):

   -40.4715 -40.4645 -38.9642 -38.9598 -20.4648 -20.2520 -17.8076 -17.7675
    -4.8064  -2.2422  -1.8251  -1.7275  -1.6345  -1.0173   0.4686   0.5745
     0.8164   0.8393   1.1800   1.4414   5.5453  11.8832  12.0020  12.2895

     occupation numbers 
     1.0000   1.0000   1.0000   1.0000   1.0000   1.0000   1.0000   1.0000
     1.0000   1.0000   1.0000   1.0000   1.0000   1.0000   1.0000   1.0000
     1.0000   1.0000   1.0108   0.8133   0.0000   0.0000   0.0000   0.0000

          k =-0.5000 0.5000 0.3333 (  3544 PWs)   bands (ev):

   -40.4721 -40.4636 -38.9621 -38.9620 -20.4509 -20.2723 -17.7917 -17.7867
    -4.7683  -2.3501  -1.8284  -1.7506  -1.5538  -0.7616   0.3517   0.4037
     0.6860   0.7803   1.4780   1.5076   5.4340  11.7931  11.8042  12.3558

     occupation numbers 
     1.0000   1.0000   1.0000   1.0000   1.0000   1.0000   1.0000   1.0000
     1.0000   1.0000   1.0000   1.0000   1.0000   1.0000   1.0000   1.0000
     1.0000   1.0000   0.6201   0.4583   0.0000   0.0000   0.0000   0.0000

          k = 0.4167-0.4167 0.4167 (  3551 PWs)   bands (ev):

   -40.4714 -40.4643 -38.9631 -38.9608 -20.4602 -20.2636 -17.7992 -17.7810
    -4.8052  -2.3213  -1.8455  -1.7582  -1.5677  -0.8788   0.4763   0.4938
     0.7920   0.8661   1.3431   1.4928   5.4303  11.7509  11.8106  12.2145

     occupation numbers 
     1.0000   1.0000   1.0000   1.0000   1.0000   1.0000   1.0000   1.0000
     1.0000   1.0000   1.0000   1.0000   1.0000   1.0000   1.0000   1.0000
     1.0000   1.0000   1.0792   0.5380   0.0000   0.0000   0.0000   0.0000

          k =-0.5000-0.4167 0.4167 (  3540 PWs)   bands (ev):

   -40.4721 -40.4634 -38.9620 -38.9618 -20.4533 -20.2743 -17.7941 -17.7892
    -4.7777  -2.3725  -1.8557  -1.7749  -1.6058  -0.7954   0.4712   0.5057
     0.7909   0.8881   1.4422   1.4725   5.4287  11.5778  11.7227  12.2338

     occupation numbers 
     1.0000   1.0000   1.0000   1.0000   1.0000   1.0000   1.0000   1.0000
     1.0000   1.0000   1.0000   1.0000   1.0000   1.0000   1.0000   1.0000
     1.0000   1.0000   0.8095   0.6505   0.0000   0.0000   0.0000   0.0000

          k =-0.4167 0.4167 0.5000 (  3540 PWs)   bands (ev):

   -40.4713 -40.4643 -38.9630 -38.9607 -20.4614 -20.2650 -17.8010 -17.7824
    -4.8131  -2.3333  -1.8576  -1.7696  -1.5668  -0.8762   0.5096   0.5478
     0.8310   0.8921   1.3416   1.4936   5.4068  11.6681  11.7420  12.1591

     occupation numbers 
     1.0000   1.0000   1.0000   1.0000   1.0000   1.0000   1.0000   1.0000
     1.0000   1.0000   1.0000   1.0000   1.0000   1.0000   1.0000   1.0000
     1.0000   1.0000   1.0799   0.5336   0.0000   0.0000   0.0000   0.0000

          k =-0.5000 0.5000 0.4167 (  3548 PWs)   bands (ev):

   -40.4720 -40.4634 -38.9619 -38.9617 -20.4547 -20.2762 -17.7955 -17.7908
    -4.7934  -2.3919  -1.8675  -1.7871  -1.5519  -0.7595   0.4744   0.5095
     0.7956   0.8986   1.4820   1.5110   5.3577  11.5584  11.6062  12.1707

     occupation numbers 
     1.0000   1.0000   1.0000   1.0000   1.0000   1.0000   1.0000   1.0000
     1.0000   1.0000   1.0000   1.0000   1.0000   1.0000   1.0000   1.0000
     1.0000   1.0000   0.5977   0.4405   0.0000   0.0000   0.0000   0.0000

     the Fermi energy is     1.5187 ev

!    total energy              =    -254.71253189 Ry
     estimated scf accuracy    <       0.00000009 Ry
     smearing contrib. (-TS)   =       0.00166490 Ry
     internal energy E=F+TS    =    -254.71419679 Ry

     The total energy is F=E-TS. E is the sum of the following terms:
     one-electron contribution =    -108.92677760 Ry
     hartree contribution      =      69.86380287 Ry
     xc contribution           =     -51.51317497 Ry
     ewald contribution        =    -164.13804709 Ry

     convergence has been achieved in   8 iterations

     Forces acting on atoms (cartesian axes, Ry/au):

     atom    1 type  1   force =    -0.00544229   -0.00544229    0.00000000
     atom    2 type  1   force =    -0.07248668    0.07248668    0.00000000
     atom    3 type  1   force =     0.07248668   -0.07248668    0.00000000
     atom    4 type  1   force =     0.00544229    0.00544229    0.00000000
     atom    5 type  2   force =    -0.09066197   -0.09066197    0.00000000
     atom    6 type  2   force =    -0.00496138    0.00496138    0.00000000
     atom    7 type  2   force =     0.00496138   -0.00496138    0.00000000
     atom    8 type  2   force =     0.09066197    0.09066197    0.00000000
     atom    9 type  3   force =     0.00000000    0.00000000    0.00000000
     The non-local contrib.  to forces
     atom    1 type  1   force =     0.00573115    0.00573115    0.00000000
     atom    2 type  1   force =     0.05133021   -0.05133021    0.00000000
     atom    3 type  1   force =    -0.05133021    0.05133021    0.00000000
     atom    4 type  1   force =    -0.00573115   -0.00573115    0.00000000
     atom    5 type  2   force =    -0.61958482   -0.61958482    0.00000000
     atom    6 type  2   force =    -0.04462910    0.04462910    0.00000000
     atom    7 type  2   force =     0.04462910   -0.04462910    0.00000000
     atom    8 type  2   force =     0.61958482    0.61958482    0.00000000
     atom    9 type  3   force =     0.00000000    0.00000000    0.00000000
     The ionic contribution  to forces
     atom    1 type  1   force =    -0.10838699   -0.10838699   -0.00000000
     atom    2 type  1   force =    -0.47978875    0.47978875    0.00000000
     atom    3 type  1   force =     0.47978875   -0.47978875    0.00000000
     atom    4 type  1   force =     0.10838699    0.10838699   -0.00000000
     atom    5 type  2   force =     1.11950707    1.11950707    0.00000000
     atom    6 type  2   force =     0.25290298   -0.25290298   -0.00000000
     atom    7 type  2   force =    -0.25290298    0.25290298   -0.00000000
     atom    8 type  2   force =    -1.11950707   -1.11950707    0.00000000
     atom    9 type  3   force =     0.00000000    0.00000000    0.00000000
     The local contribution  to forces
     atom    1 type  1   force =     0.09728025    0.09728025    0.00000000
     atom    2 type  1   force =     0.35601539   -0.35601539    0.00000000
     atom    3 type  1   force =    -0.35601539    0.35601539    0.00000000
     atom    4 type  1   force =    -0.09728025   -0.09728025    0.00000000
     atom    5 type  2   force =    -0.59068103   -0.59068103    0.00000000
     atom    6 type  2   force =    -0.21343938    0.21343938    0.00000000
     atom    7 type  2   force =     0.21343938   -0.21343938    0.00000000
     atom    8 type  2   force =     0.59068103    0.59068103    0.00000000
     atom    9 type  3   force =    -0.00000000   -0.00000000    0.00000000
     The core correction contribution to forces
     atom    1 type  1   force =     0.00000000    0.00000000    0.00000000
     atom    2 type  1   force =     0.00000000    0.00000000    0.00000000
     atom    3 type  1   force =     0.00000000    0.00000000    0.00000000
     atom    4 type  1   force =     0.00000000    0.00000000    0.00000000
     atom    5 type  2   force =     0.00000000    0.00000000    0.00000000
     atom    6 type  2   force =     0.00000000    0.00000000    0.00000000
     atom    7 type  2   force =     0.00000000    0.00000000    0.00000000
     atom    8 type  2   force =     0.00000000    0.00000000    0.00000000
     atom    9 type  3   force =     0.00000000    0.00000000    0.00000000
     The Hubbard contrib.    to forces
     atom    1 type  1   force =     0.00000000    0.00000000    0.00000000
     atom    2 type  1   force =     0.00000000    0.00000000    0.00000000
     atom    3 type  1   force =     0.00000000    0.00000000    0.00000000
     atom    4 type  1   force =     0.00000000    0.00000000    0.00000000
     atom    5 type  2   force =     0.00000000    0.00000000    0.00000000
     atom    6 type  2   force =     0.00000000    0.00000000    0.00000000
     atom    7 type  2   force =     0.00000000    0.00000000    0.00000000
     atom    8 type  2   force =     0.00000000    0.00000000    0.00000000
     atom    9 type  3   force =     0.00000000    0.00000000    0.00000000
     The SCF correction term to forces
     atom    1 type  1   force =    -0.00006670   -0.00006670   -0.00000000
     atom    2 type  1   force =    -0.00004354    0.00004354    0.00000000
     atom    3 type  1   force =     0.00004354   -0.00004354    0.00000000
     atom    4 type  1   force =     0.00006670    0.00006670   -0.00000000
     atom    5 type  2   force =     0.00009681    0.00009681    0.00000000
     atom    6 type  2   force =     0.00020412   -0.00020412    0.00000000
     atom    7 type  2   force =    -0.00020412    0.00020412    0.00000000
     atom    8 type  2   force =    -0.00009681   -0.00009681    0.00000000
     atom    9 type  3   force =     0.00000000   -0.00000000   -0.00000000

     Total force =     0.232621     Total SCF correction =     0.000479


     Computing stress (Cartesian axis) and pressure

          total   stress  (Ry/bohr**3)                   (kbar)     P=     -193.25
  -0.00130617  -0.00137294   0.00000000         -192.14     -201.97        0.00
  -0.00137294  -0.00130617   0.00000000         -201.97     -192.14        0.00
   0.00000000   0.00000000  -0.00132878            0.00        0.00     -195.47

     kinetic stress (kbar)  18247.24   -352.98      0.00
                             -352.98  18247.24      0.00
                                0.00      0.00  18572.57

     local   stress (kbar)  -3553.08   -527.06      0.00
                             -527.06  -3553.08     -0.00
                                0.00     -0.00  -2528.59

     nonloc. stress (kbar)    145.97    -43.57      0.00
                              -43.57    145.97      0.00
                                0.00      0.00    199.10

     hartree stress (kbar)   7620.26    129.95     -0.00
                              129.95   7620.26      0.00
                               -0.00      0.00   7411.30

     exc-cor stress (kbar)  -5309.85      5.08     -0.00
                                5.08  -5309.85      0.00
                               -0.00      0.00  -5317.02

     corecor stress (kbar)      0.00      0.00      0.00
                                0.00      0.00      0.00
                                0.00      0.00      0.00

     ewald   stress (kbar) -17342.69    586.62     -0.00
                              586.62 -17342.69     -0.00
                               -0.00     -0.00 -18532.83

     hubbard stress (kbar)      0.00      0.00      0.00
                                0.00      0.00      0.00
                                0.00      0.00      0.00

     DFT-D   stress (kbar)      0.00      0.00      0.00
                                0.00      0.00      0.00
                                0.00      0.00      0.00

     XDM     stress (kbar)      0.00      0.00      0.00
                                0.00      0.00      0.00
                                0.00      0.00      0.00

     dft-nl  stress (kbar)      0.00      0.00      0.00
                                0.00      0.00      0.00
                                0.00      0.00      0.00

     TS-vdW  stress (kbar)      0.00      0.00      0.00
                                0.00      0.00      0.00
                                0.00      0.00      0.00



     Writing output data file /scratch/eos/lifrlx1.save/
 
     init_run     :      1.20s CPU      1.35s WALL (       1 calls)
     electrons    :     19.17s CPU     20.65s WALL (       1 calls)
     forces       :      0.15s CPU      0.15s WALL (       1 calls)
     stress       :      0.65s CPU      0.65s WALL (       1 calls)

     Called by init_run:
     wfcinit      :      0.98s CPU      1.07s WALL (       1 calls)
     wfcinit:atom :      0.01s CPU      0.01s WALL (      76 calls)
     wfcinit:wfcr :      0.89s CPU      0.97s WALL (      76 calls)
     potinit      :      0.02s CPU      0.02s WALL (       1 calls)
     hinit0       :      0.06s CPU      0.11s WALL (       1 calls)

     Called by electrons:
     c_bands      :     16.54s CPU     17.79s WALL (       9 calls)
     sum_band     :      2.47s CPU      2.62s WALL (       9 calls)
     v_of_rho     :      0.10s CPU      0.11s WALL (       9 calls)
     v_h          :      0.01s CPU      0.01s WALL (       9 calls)
     v_xc         :      0.10s CPU      0.10s WALL (       9 calls)
     newd         :      0.03s CPU      0.05s WALL (       9 calls)
     mix_rho      :      0.01s CPU      0.02s WALL (       9 calls)

     Called by c_bands:
     init_us_2    :      0.32s CPU      0.35s WALL (    1596 calls)
     cegterg      :     14.92s CPU     15.57s WALL (     684 calls)

     Called by sum_band:
     sum_band:wei :      0.01s CPU      0.01s WALL (       9 calls)
     sum_band:loo :      2.39s CPU      2.53s WALL (       9 calls)
     sum_band:buf :      0.03s CPU      0.04s WALL (     684 calls)
     sum_band:ini :      0.15s CPU      0.16s WALL (     684 calls)
     sum_band:cal :      0.15s CPU      0.16s WALL (     684 calls)
     sum_band:bec :      0.01s CPU      0.01s WALL (     684 calls)
     addusdens    :      0.04s CPU      0.05s WALL (       9 calls)
     addusd:skk   :      0.00s CPU      0.00s WALL (      27 calls)
     addusd:dgemm :      0.02s CPU      0.02s WALL (      27 calls)
     addusd:qvan2 :      0.02s CPU      0.02s WALL (      27 calls)

     Called by *egterg:
     cdiaghg      :      1.78s CPU      1.86s WALL (    2554 calls)
     cegterg:over :      0.43s CPU      0.45s WALL (    1946 calls)
     cegterg:upda :      0.22s CPU      0.22s WALL (    1946 calls)
     cegterg:last :      0.50s CPU      0.51s WALL (    1445 calls)
     h_psi        :     12.01s CPU     12.61s WALL (    2706 calls)
     s_psi        :      0.40s CPU      0.42s WALL (    2706 calls)
     g_psi        :      0.05s CPU      0.05s WALL (    1946 calls)

     Called by h_psi:
     h_psi:calbec :      0.52s CPU      0.55s WALL (    2706 calls)
     vloc_psi     :     10.95s CPU     11.49s WALL (    2706 calls)
     add_vuspsi   :      0.45s CPU      0.47s WALL (    2706 calls)

     General routines
     calbec       :      0.74s CPU      0.78s WALL (    3770 calls)
     fft          :      0.07s CPU      0.12s WALL (     124 calls)
     ffts         :      0.00s CPU      0.00s WALL (      18 calls)
     fftw         :     11.71s CPU     12.31s WALL (  104092 calls)
     interpolate  :      0.01s CPU      0.01s WALL (       9 calls)
 
     Parallel routines
     fft_scatt_xy :      1.57s CPU      1.65s WALL (  104234 calls)
     fft_scatt_yz :      2.73s CPU      2.87s WALL (  104234 calls)
 
     PWSCF        :     21.33s CPU     26.19s WALL

 
   This run was terminated on:  21:42:21  17Jan2023            

=------------------------------------------------------------------------------=
   JOB DONE.
=------------------------------------------------------------------------------=
